3000
 energy: -5095.843910033042 gnorm: 0.000850330657 xtb: 6.4.0 (d4b70c2)
H         5.09584509296342   -3.50613090920255    0.90793295440892
O         4.56650911977986   -2.69851706944877    0.82733719601212
H         3.96386742854909   -2.71557036322895    1.60438861909870
H         3.70286798497905   -0.84288712181648    0.84172959938562
O         2.77974229157261   -0.62695335700886    0.67205892330744
H         2.42504030033973   -1.36904793443191    0.15755057804092
H         3.96907267610696   -0.19342971276550    3.00886878656801
O         3.13208182483724   -0.13368704870194    3.48894735711152
H         2.89049445602524    0.80877618602769    3.53386007295610
H         2.05199868580351   -2.83807186548698    2.24808998175462
O         2.84684575165827   -2.70129655128495    2.78077244625105
H         2.79607552904225   -1.79648146041407    3.10955990152167
H         2.95197548952941   -1.15022159959813    6.42434876136848
O         2.45720882427722   -1.44314741527931    5.64120155356203
H         2.80986983692935   -0.93936586189532    4.87946739562701
H         0.99551147224484   -2.48941319002805    5.10300553274591
O         0.42930761054647   -2.81974901970067    4.39281966943457
H         0.48800784231904   -2.15252934081991    3.68824459678122
H         2.95498948017172    3.04381513524155    2.77843252306286
O         2.34238640144078    2.33919179877271    3.04355953280050
H         1.98820854317582    1.99092643404527    2.20232957145491
H         3.36824320099232   -4.89518713061404    1.72901346018787
O         2.91389226372707   -4.92408452667128    0.85306326719151
H         2.18271443460971   -4.27942075838908    0.86581919550729
H         6.12491114989864   -1.01146272277051    1.86836104193244
O         5.55499589721262   -0.63726078717260    2.56508327119988
H         5.81164751031162    0.30628762674596    2.67533648872159
H         1.29608377090420    0.91573832637372    0.19074822541333
O         1.54707037776374    1.76872642060504    0.57532388636404
H         0.71944794989032    2.22118788940372    0.81790896818387
H         6.64448740167725    2.26495694389293    2.85452936338248
O         5.74567586372464    1.91956767198871    3.04588648119189
H         5.18828858820701    2.12200152397861    2.27446591933837
H         3.86034822604217   -4.89719093243958   -0.46849764848989
O         4.46649946774160   -4.84344717298404   -1.24685496459069
H         4.98702964020282   -5.65222296037764   -1.27156016788369
H        -0.05070337180811    0.81945764954084    4.76446381513248
O        -0.41042659135866    0.94379398616008    3.87110637139655
H         0.06802600422927    0.29030019396354    3.31289456330573
H        -0.03431034234161   -1.14897359641941    1.88450094767199
O         0.71028824606566   -0.89003153976652    2.46875720426721
H         1.46716595140087   -0.67304190161817    1.89728951282016
H        -0.36324709889754   -0.79059466074873   -0.14940442510519
O         0.34497476685249   -0.34451038569284   -0.63271942468996
H         0.58984157994120   -0.94701470811349   -1.34618275167201
H         0.32451020192662    4.82230249626820   -1.38047130567839
O         0.75682287137909    4.02714987216315   -1.02038747051216
H         0.06640710844669    3.34021191334292   -0.91680970463588
H         4.11082231648079    4.28845744257337    1.29200055826636
O         3.64976090800834    4.50421935948449    2.12982111931376
H         2.74064133617704    4.80402686119475    1.86141226608640
H         5.28278764623778   -2.22116505725010    3.41416889419589
O         5.50069537656709   -3.05463206221357    3.85591839469850
H         5.24196018841179   -2.96973816388069    4.79967991882394
H         1.91322935708713   -5.78837384462018   -1.33756498156955
O         1.52127538411536   -4.90476728309344   -1.24842357880946
H         1.06284545582685   -4.70613620116488   -2.08635834378220
H         0.41037759130026   -5.19882377481053   -0.09093051367613
O        -0.25052187452930   -5.59631615482848    0.51301763936684
H        -0.29036233376348   -6.51973378409490    0.21062273647466
H         0.48018306353981   -2.96442915949687    0.05860669873372
O         0.87949000486788   -3.11500043835930    0.94013734059212
H         0.14491388845917   -3.43588811712801    1.49305119343045
H        -1.72569982292296   -0.34153553361657    1.21374633065425
O        -1.46365263197148   -1.28331123882270    1.08896139796284
H        -2.13649521552432   -1.79410129685391    1.55798172152118
H        -3.53995639304945    0.47308125826955    4.07093271094831
O        -2.83686586876185   -0.20320582726156    4.14372202130009
H        -1.96995181981577    0.22777787766279    4.00969212325347
H        -0.56699915349632   -8.47102620365316    1.82207092568561
O        -0.34857951890740   -7.73224558462190    2.42842605528446
H         0.52522992277418   -7.41055051561421    2.14163518746567
H        -1.89221239920130   -3.42865611222718    2.57814896961962
O        -1.17025812756473   -4.06308064858892    2.47758099567769
H        -1.54677228849463   -4.83781741556809    2.02136858477225
H         0.98697043601003   -4.33172594943329    3.61057137967826
O         1.23842057313219   -5.12691395349862    3.11011151145753
H         0.62074690777322   -5.23446587896156    2.37774377381875
H         4.63288161508908    1.14634722387286    0.38397304780493
O         4.25575568425859    1.93502114377273    0.79113653535582
H         3.29916642125598    1.87374054212016    0.65826722152417
H        -0.81840095177729   -5.48291844946532    5.32435418750285
O        -1.24506971661460   -5.84698780502773    4.53136123997156
H        -1.04464799871830   -5.21401230496488    3.82530773415053
H        -0.50524236805888    1.16166501580042   -0.85515445855612
O        -0.98831541463339    1.99370002243546   -0.70789792294579
H        -1.46729557958640    1.86618887446120    0.12885455378143
H         2.10511646842702    3.23619692217754   -1.72988364549157
O         2.87925328843015    3.11586927787918   -2.31695043329952
H         2.52163845540830    3.26657967498125   -3.20746397975398
H         4.57848551716225    0.50754670320411    5.51080620713280
O         5.24752165763942   -0.21703153234471    5.41260510784427
H         5.43178077688543   -0.29296574232269    4.47141141285812
H        -1.78954662154788    1.95982923450962    5.25016510161883
O        -1.81584707640998    1.73831981172379    6.19311418488020
H        -1.72201975074314    0.76574780513423    6.27569138283980
H        -4.06743383756585   -2.80785767457436    2.89765066412211
O        -3.19662749882978   -2.37180609347582    2.79796482301068
H        -3.21175385460267   -1.50721879890340    3.28278360449713
H         6.92335452876917   -4.73956229498313    0.52123336229905
O         6.18199107052468   -4.80212621559870    1.15190106740724
H         5.67681552880738   -5.61061024147618    0.92159337693883
H        -4.99011823121181    0.10995008085847    2.59516519051800
O        -4.66197267411907    0.16232253791148    1.69253809864287
H        -4.65524410255045   -0.74702480168635    1.34532000097489
H         1.60911488169496    2.73090011856284    4.49266802483827
O         1.14778757075779    2.97968764478305    5.32040865043718
H         1.06656910988004    2.13353140643944    5.81014573135435
H        -3.26675869250741    0.86635798398115   -0.62442267311022
O        -2.85938762166126    0.01867197096401   -0.85326423372256
H        -3.34251075532025   -0.67658861130136   -0.39018407335636
H        -0.20969728817362    2.39146229885245    2.84185278564623
O        -0.26221696658642    2.98144170585744    2.07086934845085
H         0.37986101208196    3.70624058442713    2.15566630775378
H        -4.37580013225380   -2.12594906958406   -0.83342877565872
O        -4.27761666367269   -2.07948321131821    0.13957652678796
H        -3.64309491588093   -2.76769867933860    0.36166697806868
H        -1.94373889532627   -6.67992305683595    6.69473269579061
O        -2.69148303651506   -7.23316544620209    6.43956957255535
H        -2.41983998786670   -7.68592213974291    5.62115505994920
H         2.32491689898430   -3.39055823221414   -1.20895965255094
O         2.83212971538010   -2.55986884887970   -1.23076524654872
H         3.56802559895492   -2.67214986863723   -0.59795692329209
H        -2.01787339371656    1.64751826437833    2.38663930660922
O        -2.21534302489974    1.16808668803641    1.56946199319804
H        -3.16145128947010    0.93031373274283    1.59367873370335
H        -1.13840410703944   -3.19939395569991    4.97296423283307
O        -2.09195835480700   -3.14536992358096    5.18245298303818
H        -2.51823432192226   -2.91738453600967    4.34362353054307
H         2.02715038736433    4.22740281670901    5.90424502526811
O         2.58448887094294    5.02138261231736    6.08112725631532
H         2.53584296788890    5.20030880014473    7.02641826738189
H        -4.90799687132900    2.04809105149044    3.56684544690165
O        -4.89252212764172    1.42097088760763    4.30193789462084
H        -4.67203266027782    1.94014773422047    5.08720401191140
H         6.29169257464704   -0.00153388949273   -0.04401501634590
O         5.44550364685982   -0.16826693182762   -0.49456127053456
H         5.47974207298594   -1.09090351057560   -0.81296652178280
H         0.03825069564476    5.24020338552406    3.95093862218042
O        -0.59118491673392    4.60981983613922    4.34306570219076
H        -0.03063830618219    3.93564223700697    4.78592788883397
H        -7.41932291659923    1.06685790722511    4.40011030363409
O        -7.31047969355055    0.27345220399711    4.94985724243095
H        -6.53346476288928   -0.24088033222716    4.62037441771090
H         2.86082953355711    0.13277005106813   -1.00961820355883
O         2.70179270101728    0.26415219864200   -1.95392760156277
H         2.34779458214018   -0.57673480520194   -2.28083508706530
H         0.88598031426999    1.70388159018676   -3.74880902445291
O         0.46134163102521    1.44029871574433   -2.90834699702741
H         1.19161250877675    1.09423296960587   -2.36689867712046
H         4.28263801938405    4.14335623588832    3.73582182233995
O         4.56766690122528    4.01763617334450    4.64989494189105
H         3.97227759700249    4.54824802145836    5.21243025933253
H        -6.39309492325057   -0.15926893916897   -0.68071219841312
O        -6.13260680725395    0.76212983171796   -0.47984130684956
H        -5.61250519696011    0.72702309221550    0.34159004149579
H        -4.56412374880498    3.98958994173557    2.19876530713323
O        -4.49167767052940    3.00598588114242    2.15751430101030
H        -4.19204065038061    2.76722487892676    1.24176705289302
H         3.24254038606667   -4.89430738218375    3.67646094379743
O         4.03476567607330   -5.11009551394447    3.15537631471626
H         4.63385736145647   -4.35345233044604    3.31709000489692
H        -3.18243548019088    2.98532855630843    3.21761009567696
O        -2.42475099335874    2.77382201290920    3.78934899908118
H        -1.85378975988375    3.55405953934878    3.85106638490290
H         4.86557367517568   -1.65481686461563    6.10896350323261
O         4.79297501264109   -2.59943201411967    6.36344737656075
H         5.46502226812100   -2.70765179032411    7.06287311094622
H         0.72716564314969    0.43764652845801    7.18997438696421
O         0.79725327293935    0.55240114138583    6.22705988440311
H         1.36131581843595   -0.18699738056123    5.93396457094253
H        -7.46216138011408    1.99150072354901    1.87595188880389
O        -7.07008326348353    2.86476354000237    1.71623824675285
H        -6.14413061775121    2.83067700000157    2.02183604798471
H         7.79682978672338   -1.35427375635497   -0.86593556161233
O         8.17226166096177   -1.11172622362560   -1.72849997461475
H         7.43959670025330   -1.05842850320070   -2.35423710902484
H        -1.83227961918952   -1.60460278395741    5.91271406061332
O        -1.49126812220544   -0.90164047228388    6.49721759395329
H        -1.98205223867323   -0.99143648487186    7.34035472196838
H         6.27015273422942    2.33340828101964   -1.30757743600773
O         6.79236720953014    2.83206185555365   -0.65523445436662
H         7.09764393454042    2.19605948990163    0.01563966654123
H        -2.15904089787599    1.67336558418039   -3.65188415663657
O        -2.65628012556715    1.92351749837131   -2.85093915286430
H        -2.04482370285868    1.94963131021985   -2.08867966804112
H         8.57420695513610    0.85253079619927    0.60286651478107
O         7.65619301340467    0.82164660336934    0.91192465176118
H         7.74185560438573    0.48157192873922    1.81835303328577
H        -3.16136332099514    3.11040390742693   -0.58751342187115
O        -3.88903860282903    2.51904207576183   -0.30342505973294
H        -4.72017469254919    2.93256346262398   -0.61041644434971
H         0.02550242699860   -1.46408038514652   -3.03294804429938
O         0.98930745643964   -1.55583402729995   -3.15532437280131
H         1.10777954810050   -2.50532009505092   -3.33493907985074
H         2.26705328986984   -6.35275120542091    1.22112592847224
O         2.11050907404690   -7.31342938661340    1.39002314122554
H         2.77384088190895   -7.55565326957948    2.05055697061597
H        -1.66084711625540   -4.67302527416915    0.09760349073824
O        -2.48788705541336   -4.15781661822821   -0.02540841658346
H        -3.17426692008587   -4.61607718615818    0.49161390500541
H         4.79486694986572   -7.38483069172861    1.62303481486609
O         5.06659618768457   -7.16321940413606    0.69822779166003
H         5.89246164919882   -7.63812942589544    0.53266502519333
H        -1.45418425726131    4.16425520179869    1.75873015787072
O        -1.93777570978246    4.94220037431795    1.42694910152836
H        -1.87748907394903    4.85586270937582    0.46253458154342
H        -5.34875152436545    0.71542458256003   -1.99261227131041
O        -4.81627202342760    0.47497432133379   -2.76995366616970
H        -3.94843703156946    0.91658380509943   -2.65017132748662
H        -4.53630524166852    0.54082790136016    6.84043506444387
O        -4.20146129447800   -0.33766455510713    6.62367522702174
H        -3.76242657332441   -0.29189117204658    5.76206249524166
H        -4.98104796271627    6.14279759279584   -0.48429876459244
O        -4.25717596967540    5.88256569617924   -1.07727048557785
H        -4.60728991414251    5.23092611508628   -1.70807788205762
H         4.28781993156373    1.98975583166564   -2.40125346387411
O         5.16757909157336    1.57817471953594   -2.42498007407845
H         5.14562506553673    0.83716507622037   -1.77643303319764
H        -3.09567396969710   -6.22882274751035    2.62678972672300
O        -2.50918923864768   -6.32381789634769    1.85450078985088
H        -1.72665147190224   -6.84155187724175    2.13895418646627
H         0.90584858789120    5.90341175885987    1.19284863100205
O         1.24452500660746    5.00394469711501    1.34667514684079
H         1.18287555501315    4.58001981508272    0.46033030016702
H        -1.50323361543971   -3.13761505611449   -4.39451867072349
O        -2.26644044871533   -3.42991775032824   -3.85891871033694
H        -2.92489020236088   -3.72713253190098   -4.51270406130725
H        -5.26200746977560   -2.03432184519489    4.75427548310748
O        -5.43215288927095   -1.30598524494602    4.13888627808730
H        -5.81895431639343   -1.66418571760544    3.31498136929564
H        -0.62590851081189   -3.67001929152143   -1.73129851910516
O        -0.55077626335536   -2.81428259493830   -1.27951805094635
H        -1.39230365981174   -2.67734129141064   -0.83868173558906
H        -2.83241853444472    4.96127806174894   -1.24203088246994
O        -2.12642942868721    4.31084716442031   -1.11591686545580
H        -1.69279484819392    4.15594481018295   -1.97711832089345
H         0.69713509317875    2.40065034069538    8.08223521899185
O        -0.26763419954369    2.48386029637100    8.19801633294773
H        -0.69557436764887    2.22271676211228    7.35990638863110
H        -1.59488229121781   -4.72578893896902   -2.98758404318985
O        -1.09597618926254   -5.28097325462627   -2.35692541109683
H        -1.71615527074692   -5.81404975399156   -1.84147891051934
H        -2.26328465993120   -6.64821232360639    8.96552082656746
O        -1.41263110847229   -6.30195647630888    8.62654197813294
H        -0.75059234995342   -7.00855139618695    8.63196351627598
H        -3.75875237455422   -3.46857965822646    5.91270276421751
O        -4.59983531828359   -3.05698883432452    6.14332815999265
H        -4.36989362238738   -2.26754215309375    6.64823148143304
H        -3.21664389762026   -2.17833236347208   -2.93129344999978
O        -4.05321200245214   -2.02540814005439   -2.46342650838113
H        -4.35498990198138   -1.11101410636074   -2.65688277744218
H         1.78455213380566   -9.29279433078234    2.14151335234074
O         1.83650702345906   -9.50741152136135    3.07952941184207
H         1.69177863757799   -8.67883091164204    3.58580697646902
H         3.25741147924685    4.83578764510336   -2.40238942826085
O         3.64379011610385    5.70048002388592   -2.60198772794718
H         4.61069638852395    5.59690022367122   -2.48603447439049
H         1.55497487265716   -6.44534803983619    4.01804506289952
O         1.74240000141597   -7.26021578751454    4.53472295652001
H         1.08052729356610   -7.30412537568348    5.24917501259455
H        -0.46437080035373    2.91411546046216   -3.10709883791707
O        -0.81542510201563    3.76404370504019   -3.41737424714949
H        -0.02702094452868    4.21952469935303   -3.76641180931977
H        -8.90373235137841   -1.91230944158190    3.78725248737720
O        -9.29590787972173   -1.02667351883142    3.88148259205041
H        -8.67750772948679   -0.53939525696731    4.47004105699218
H        -0.68123691513467  -10.50867198468864    1.61622761969512
O        -1.24024272686679   -9.82719708942480    1.17960267010112
H        -2.00889232610158   -9.67085293690304    1.75498933350640
H        -5.40699640738179   -6.74521427202150    7.34585220884665
O        -4.94244721897674   -5.92989000503272    7.07144595570836
H        -4.05438181463267   -6.23699761151491    6.82768761788465
H         1.67483584797180    4.60027382300398   -5.21786028748358
O         1.61259521717710    4.55562527677103   -4.25285554123407
H         1.67885534453848    5.47097770908945   -3.92233726108837
H        -5.32698660491340   -1.55612611430727    9.84737472196849
O        -5.07842226603003   -2.12204317115589    9.09065960952977
H        -5.71806788346639   -1.94081695662475    8.37324450623168
H        -4.19913870092371   -3.73445738536745   -2.47393078541004
O        -4.09378870389880   -4.64644696601784   -2.15527007816908
H        -3.45299015723711   -4.57715968724995   -1.42017990112687
H        -5.00767781964015    3.84388437974546   -3.60446224378911
O        -4.35406191697514    3.95456993337582   -2.89636728030031
H        -3.79482021981230    3.15624527957442   -2.86691917962241
H         4.93293237029632   -8.14912976106658    3.60263316212763
O         4.22146773273398   -7.71660498339970    3.09725848314904
H         4.20760972401050   -6.77114887013508    3.34556644951844
H         6.85295268593974   -2.67196211378248    0.83331108793080
O         7.25405131904311   -1.80522631943614    0.75150957873696
H         8.18952244204162   -1.88507286450594    1.02787449958347
H         2.83438787341240   -3.32232985285036    5.44308040875558
O         2.87834909110953   -4.28272532676735    5.34487968299929
H         2.50803371203493   -4.70284631581303    6.13119470663494
H        -7.13062887303533   -1.04175332992174    1.80055845494080
O        -6.48569988578873   -1.77616897389253    1.76270544724128
H        -6.95127808752826   -2.62611872367263    1.74024676288896
H        -6.98578250759240   -0.62028380682058    7.75095832955005
O        -6.62677064222907   -1.29034368157982    7.14346779860137
H        -5.83820135689669   -0.89793458419939    6.72754809419111
H        -2.30714742523273    3.66905491614981   -4.68807521841358
O        -3.05342612542057    3.63789925430033   -5.30387295987772
H        -3.50746991173837    2.78259326241850   -5.16979548514577
H        -3.65567535823359    0.62282658177487   -5.24042514146474
O        -4.35138966002373    1.30645438848038   -5.20095735575229
H        -4.80737732214494    1.13491109898111   -4.35959355985281
H         5.24057451172016   -3.35143512798693   -1.42667059615157
O         5.82841417610922   -2.60430598655117   -1.64549980245323
H         5.92892318584802   -2.64608512436958   -2.61415198869625
H        -0.18470137140787    0.15811425152160   -5.25916550475282
O         0.66805266442827   -0.28827612395399   -5.42797539797806
H         0.88389070037915   -0.81424258669907   -4.62524981351670
H         0.29701335452199   -4.59762163239614   -4.12260363984408
O         0.99339472429491   -4.12555618816337   -3.64863362460454
H         1.84737393858346   -4.57962066443243   -3.78780983192917
H         0.31261171810749   -7.69205506946112   -1.52405824179889
O        -0.17064171481361   -7.95895020712776   -0.71969533679752
H         0.34987883392414   -8.65184160617098   -0.28373056677825
H         5.69464416612037    0.05466972205203   -3.56347517926728
O         6.18614042015841   -0.76078882031636   -3.72099974175618
H         5.73172453601905   -1.20453890823940   -4.45678572717046
H        -2.89149785443446   -5.84701752498320    4.46840202261619
O        -3.81733155374983   -5.93036904342656    4.13795376712063
H        -4.17619066992268   -6.77123083625376    4.46333709010809
H         8.86278462160419    0.33956332026847   -1.52742996913388
O         9.26986726945989    1.23478260929104   -1.46530279734592
H        10.22988609697891    1.09260425426590   -1.44597432145978
H        -5.22007057429393   -4.31805296479506    2.31619844517349
O        -5.28150343750402   -3.94125890084432    3.21527790570902
H        -4.83890299230365   -4.60086581726323    3.78025695005764
H        -7.18828764900902   -4.99612642754699    1.66462687867218
O        -7.44534177705780   -4.16301605735208    1.21984188391456
H        -7.26011969283100   -4.28555647604101    0.28007251121828
H        -1.84758163229893   -7.46140759591215   -0.84115810223821
O        -2.64365709611223   -6.91026725242883   -0.73412957713752
H        -2.69056091603544   -6.71221313294368    0.21891324309228
H        -6.22865051464510   -3.62507722233220    6.53911036919981
O        -7.16534421700421   -3.88790543511147    6.55525656669538
H        -7.62392351305980   -3.31923648537010    7.20000646495666
H         2.64964024259222    2.01101517271467    8.79186890780359
O         2.39960064098146    2.43790106048040    7.94415428146449
H         2.49064498065112    3.38948275518206    8.10113151823778
H        -6.44478263014457    3.00780251628643   -5.40504965730858
O        -6.24666485283151    3.73463336595645   -4.79074057103378
H        -5.91766261166811    4.47811891676499   -5.33616862026432
H         3.27688170432711   -2.52086109654878   -2.88740520648090
O         3.51232859080048   -2.48833925879623   -3.83709425054648
H         4.35505080358575   -2.96234161250004   -3.95143220207556
H        -4.63551124438040   -6.07036448829692    0.90410293010405
O        -4.73796298171527   -5.10929674291102    0.89008647012235
H        -5.36941198132204   -4.90968612858363    0.18964189857699
H        -1.50094780847151    6.21927138089730    2.51935168135660
O        -1.64500425384862    6.88223418658793    3.21604497160140
H        -2.15483567879300    6.42768458472519    3.90047312412299
H        -7.72075199231902   -3.38379071138525    5.00166529464255
O        -7.78790849676588   -3.30568769827013    4.03156839834896
H        -6.89360580079659   -3.49804089002909    3.68977963626490
H         8.98158272982868    0.63828150063039   -4.22701119630452
O         9.29186011761774    1.54989434949214   -4.06284909454667
H         9.31258786727287    1.64982346200616   -3.08829478823003
H        -9.35625841595792   -5.36064680094177    2.13733333743548
O        -9.12939524259425   -5.44268699837734    3.07158493837348
H        -8.71280339223081   -4.60856176292610    3.35522240092994
H        -6.33339231796488    2.45075566367420    6.94321914455572
O        -6.18288510224507    1.49405568151668    7.01160677340092
H        -6.60879971314050    1.06827349484366    6.23688664184511
H         6.39623226333085   -3.30024107165595   -4.79591732984288
O         5.85543144444578   -3.67149977373196   -4.07725067974787
H         6.37689331318322   -4.41174265323904   -3.71487377799356
H        -6.95064681747364    0.76486812658801   -5.14404948945424
O        -7.01244134175494    0.19777970168623   -4.35378909502606
H        -7.82505214848372   -0.32880597900286   -4.45785322982473
H         3.75733212066080   -7.23253932363360   -1.24401458829373
O         2.79974782489152   -7.33755416455560   -1.18429684947768
H         2.55079486670049   -7.45192396820311   -0.24474560035396
H         8.34171185630578   -2.26579006692050    5.88922900436705
O         8.61935350953828   -3.16927209511798    5.63722968976386
H         8.46790741592691   -3.22343918122702    4.66887705541654
H         6.02476613449634    2.35820496317206    4.92780942562312
O         6.42441938959536    2.36867168486742    5.81028502510269
H         6.40722342227132    3.28892939515401    6.13945435740676
H        -1.55108398846969   -9.72518341319758    4.46436985557067
O        -1.47877215370656   -8.77374107395480    4.62163147281899
H        -1.04041090087014   -8.35623277406065    3.84981727636091
H        -7.18963361170029   -5.32482358473450    5.16686640239485
O        -6.54431117878642   -6.00165172421969    4.94506593900330
H        -5.87147005417311   -5.94024171773643    5.65524475094770
H         0.66437826385538   -5.32512445383753    6.90540166339435
O        -0.18721585519590   -4.88995781471708    6.75761909839812
H        -0.76093136786748   -5.19918588991075    7.47362134438882
H         1.05194931604973   -7.69592381907203   -3.74899230719002
O         0.95612193269454   -7.07915467591541   -3.01016474676056
H         0.16657927409133   -6.53216960692909   -3.14147938410109
H        -2.35218221406201   -8.85540626080073   -2.32738868569678
O        -1.91254485206717   -8.40011830795452   -3.06489560154847
H        -1.05094787371754   -8.83384594430706   -3.14597557623501
H        -7.55768613379458   -6.86408287206626    2.47993758401754
O        -6.68919306726217   -6.45640557526459    2.36097551465022
H        -6.40774490805399   -6.20568628396667    3.26221777775418
H         0.39284580804203   -8.49333746662174    7.02064156725895
O         0.05356724704475   -7.75628830711837    6.50012025091148
H        -0.49079240263238   -8.16184899155856    5.79529641793232
H         4.43153016498788   -1.61055606357753   -6.70516072809759
O         5.15710232066398   -1.39267450757483   -6.11310100923165
H         5.26041639850988   -0.42474669735603   -6.10180542855375
H        -6.56027131346379    3.04750391670271   -1.36115477334699
O        -6.25895656935197    3.69001457370522   -0.69075551094245
H        -6.68907741297879    3.44480103312965    0.14962274523072
H         7.90628427038908    3.81801945095790    3.12681488955654
O         8.15346934555183    2.93784174476471    2.78824521143325
H         8.61940807142196    3.05263340249674    1.93807124367205
H         3.88719387234368   -9.40862688800861    5.39099362249075
O         3.62528497537908  -10.21882545623910    4.92192967154692
H         3.13361268180579   -9.92162707480906    4.13357615969708
H        -3.18766669131112    2.64803903231525    6.37108426214744
O        -4.01304240807824    3.17256131809701    6.30858277578184
H        -4.23595041223810    3.40116983925972    7.23027759701995
H        -4.49767747660515   -7.90054468820324   -5.77292723011711
O        -4.68714921290648   -8.65428745914889   -5.18531094825013
H        -5.56523435620043   -8.45095004082309   -4.79388996007446
H        -2.70533243017001   -7.03786004257726   -3.86022620887829
O        -3.36748200520198   -6.37539195015887   -4.12075020990754
H        -3.35429640161612   -5.67498039133603   -3.44986681684962
H        -5.15019048445313    2.94084198207182    9.26082838201263
O        -4.41089449188096    3.51351446453919    8.94632088669431
H        -4.47226893844596    4.31177862890815    9.49135620046087
H        -0.12934114508546   -1.71739297349642    6.99614680039105
O         0.51878294850794   -2.37804558144701    7.31186959082181
H         0.15876889726059   -3.25147173175460    7.09306102933414
H        -6.38072787437127    1.55661883059877    8.75452241746089
O        -6.33754983130446    1.89513344473755    9.66178576192907
H        -6.07426509849408    1.13538670086841   10.21274887363291
H         3.04963502839152   -7.55091034069489    5.50413955472820
O         3.77454812019903   -7.82575634944037    6.10834587827094
H         4.44243468386502   -7.11578513888878    6.06563988280073
H        -7.24603087273738   -4.67856760697259   -1.74449382336517
O        -6.49262509016362   -4.89302208732316   -1.16005773498108
H        -5.66251778295162   -4.82833455687096   -1.69042039844578
H        -7.79791187428160    1.67012499493502   -6.91345569199258
O        -6.94613287345212    1.76968380774702   -6.46210860601317
H        -6.26599457245264    2.08086435620788   -7.08634355673427
H        -1.71789524992865    1.86949619870481    8.97569450890976
O        -2.62578593764653    1.54126586387833    9.06802429392916
H        -3.20668574342602    2.32867250272458    9.03826000063855
H        -0.24738979944119   -2.80288058867072    9.72892732383895
O        -0.42790409139584   -1.88757677233810    9.98375980506505