900
 energy: -1527.830920390835 gnorm: 0.000603856115 xtb: 6.4.0 (d4b70c2)
H         5.20193261339142   -2.97120369801121    0.54555080341696
O         4.43650478971040   -2.42463143836793    0.31911473734958
H         3.77691367793390   -2.53340700005523    1.04990678065973
H         2.76269560496737    0.22778766466765    0.38763614381172
O         1.82495971157021    0.04002850048132    0.18338230386040
H         1.86640941389441   -0.68580987115110   -0.46433246202518
H         3.94413062483838    0.05241997320747    2.24456460014999
O         3.42910268500705   -0.12834996313314    3.05518085829225
H         2.76955102486537    0.60556288162697    3.10326024445838
H         1.78307070054848   -2.31331595103338    1.64984136593084
O         2.58633353236589   -2.47068959402166    2.16102342376409
H         2.81132166744033   -1.64012743980674    2.61551524177221
H         3.14696622198897   -0.73994111168634    6.30998079960081
O         2.54339786917801   -1.00937936825747    5.58467390476322
H         2.94654103821651   -0.68743846323567    4.76750009708853
H         1.13171157612415   -1.93609771349953    4.89021094669827
O         0.42260971668435   -2.24517657119089    4.31257011127237
H         0.41095945756442   -1.66328012360506    3.53094894194312
H         2.59778081834960    2.47761190549870    2.73949714857991
O         1.84989901868731    1.92520009341303    3.05143835027503
H         1.15225944111891    2.01664055009529    2.36151400082882
H         2.92627933022116   -4.54955204760725    1.11288295729235
O         2.47358778113855   -4.58245458659430    0.24417370513947
H         1.77497074897121   -3.89436434981862    0.26425057550638
H         6.57496929910629   -0.80055907538546    1.55965351724758
O         6.34678184737041   -0.72644868747067    2.50666428285955
H         6.43296626256432    0.21965764402386    2.73696914270148
H         0.30235825738991    1.45761395504641    0.51039838100493
O         0.04061927179696    2.13228303826500    1.14940217340116
H        -0.89837342102851    1.98073994654358    1.34206902203557
H         7.18720531610984    2.33529826170293    2.53935467022035
O         6.44223107402797    1.87214584052569    2.94602002218830
H         5.60635208627947    2.20346772417564    2.53738754098854
H         4.58617223837178   -0.75620480524761    0.39619927409138
O         4.43596471584920    0.18596804368747    0.62274480275012
H         4.98432972178267    0.71736251404103    0.02334293469373
H         3.66945329176011   -4.42248686031082   -0.95515323885185
O         4.36244598410808   -4.46586028091822   -1.65008705424968
H         4.73915388950965   -5.35064111584145   -1.56558753023232
H        -0.45593981012170    0.77523363258453    4.67345348905523
O        -0.99985741203853    0.94515260201626    3.88063343675811
H        -0.48718231254111    0.53974471163986    3.14987250501292
H         3.07768578334402    7.23356716230871    2.37140134362628
O         2.94480204652105    6.44054149966194    2.91987683795741
H         2.55312274182630    5.75407577761046    2.32814451805065
H        -0.55419382449138   -0.90256546909111    1.65882478752090
O         0.23184201086956   -0.62262910531805    2.17054613836455
H         0.90313677822068   -0.35869682360394    1.50098850752055
H        -1.38270640301026    0.39271940854487   -1.53079151690760
O        -0.52476357503400    0.48363747860426   -1.02905354327377
H        -0.45180251214094   -0.32914443841423   -0.52356091644948
H         1.68814811650088    4.26787977086598    0.77205190539829
O         1.89686538233936    4.33820721366896    1.71716998597927
H         1.04034453758622    4.44178167991075    2.15533908201421
H         1.08599538433786    5.08144383138204   -0.93091617971410
O         1.08706075758856    4.09982245931246   -0.86840070072328
H         0.16688615734756    3.79579303094987   -0.99441356946016
H         3.90800078159928    2.51605593382457    1.13581176706743
O         4.15855739360870    2.77352019718505    2.04785985407971
H         4.27879881336730    3.73721694859664    2.01457689374793
H         5.23179703125975   -2.18567007131605    2.83054025310431
O         5.12519131485324   -3.03540859991075    3.28167650254904
H         4.99586344150393   -2.79866581599533    4.23049258234362
H         1.52605027392917   -5.05093143549666   -1.83319639076760
O         1.02091991580020   -4.26113725259201   -2.10075928728756
H         0.96636312866294   -4.28242089997097   -3.07040980190248
H        -0.39800609437176   -4.63792306911106   -1.20190175679120
O        -1.13516305549170   -5.02680789914328   -0.68884381673198
H        -1.00732222532397   -5.98826399910267   -0.72843713045964
H         0.06158188422209   -2.57269570256468   -0.47313683593875
O         0.57019078240299   -2.67758652948665    0.34869617724402
H        -0.05856511638504   -3.08371435160587    0.97761842857101
H        -2.33028944382699   -0.14855396892163    0.93334916449405
O        -1.99010909653222   -1.04597265254509    0.74379010304840
H        -2.53987598867030   -1.67078719484933    1.23888514212706
H        -3.90332064292084    0.40971238005201    3.51097122852574
O        -3.29129709433332   -0.32484116231233    3.68163304862967
H        -2.39667080460845    0.08400651122001    3.75563611309716
H        -1.19940056540236   -7.84730682182685    1.73244660474606
O        -0.82666791081776   -6.95299287521173    1.76849104869948
H         0.10413813369180   -6.96827298606612    1.47285976565205
H        -2.02139841864020   -3.66140025831070    2.00616458587757
O        -1.16649683669904   -4.03455674837560    1.75053925301656
H        -1.29495479695666   -4.51380534804770    0.90556192932856
H         0.91049933337162   -3.84400557539505    3.83572101474057
O         0.91935492930761   -4.62322789125291    3.24573729302506
H         0.14482710731334   -4.51123007319127    2.66701866541815
H         3.25502898607882    3.39601456798098   -0.63334689050327
O         3.21143033903496    2.43960169974473   -0.42991147814467
H         2.28176957251385    2.24739234463289   -0.27962727005601
H        -1.12442317476792   -5.54390384121873    4.66250172301431
O        -1.76949110014286   -6.02117350557595    4.09750595573568
H        -1.35304088443317   -6.15540844598296    3.22925064221542
H        -1.07386645103575    2.20233248431445   -0.97894654704735
O        -1.34237448618102    3.10277344948212   -1.21065053524147
H        -1.64434416546321    3.53838943916587   -0.38357980107424
H         1.79858476486359    3.83676474375936   -2.31744323036018
O         2.05432120397404    3.86395722648661   -3.26897558609081
H         1.32452344140785    3.42909901905061   -3.75865004940049
H         4.60183617310788    1.01066505359045    5.41764310226880
O         5.17617532507474    0.34528768518551    4.99101792451890
H         4.76191825378534    0.18950636219322    4.12433862642591
H        -2.48476077663109    3.58500701319973    5.07633160078543
O        -2.27529892929873    2.73783502540172    5.53398539095714
H        -1.87195274366137    2.16512454887277    4.86251138040884
H        -4.17351783962134   -3.24998971907614    2.40523455574972
O        -3.37933673999564   -2.67228445664223    2.40971122332226
H        -3.60342285492163   -1.83524439467009    2.86060752382800
H         7.53867333246279   -3.79194840627524    0.68695735434327
O         6.61670738827605   -4.10712275946415    0.63282098831111
H         6.57144181359400   -4.74065281250075   -0.08513695085413
H        -5.25985768400012   -0.55227665546328    1.65934517561279
O        -4.95463543046467   -0.02801372740970    0.90430463198138
H        -4.53260852002585   -0.67053434394838    0.30100953182420
H         1.26607372611729    2.64266288008280    4.36456343502736
O         0.73198377037902    3.06910381674457    5.08544907186314
H         0.56116576422696    2.34800756182399    5.70234411896899
H        -3.32317734354955    1.10485817021497   -1.65146462001372
O        -2.84385552576530    0.37298209582095   -2.07967083337650
H        -3.24821285873844   -0.43961813293678   -1.73741815788915
H        -0.12023220765963    3.97588847344156    3.93984245837876
O        -0.40334032979132    4.62517962976736    3.26749039011217
H        -0.01476191904772    5.48237081063738    3.55972100317693
H        -4.70914796986342   -1.58327622609187   -1.85906458685552
O        -4.19500625181156   -1.69087646869414   -1.03057827400258
H        -4.01391121331845   -2.65013787044778   -0.95779372396910
H        -2.23367062550084   -7.61392744461895    4.37483657319089
O        -2.55858177933451   -8.54387553080689    4.43426108829263
H        -1.86366850190549   -9.05925747902654    4.87098945805949
H         1.92823438690626   -2.81303338031950   -1.66054534595927
O         2.41891338062722   -1.97699710351699   -1.54962730814736
H         3.23031006359700   -2.18526357469724   -1.06199414338386
H        -3.12727026942992    1.67905217765669    2.09884136001874
O        -2.62724873344697    1.53085922398183    1.29062189316943
H        -3.22913836049756    1.78135494737588    0.56535545340981
H        -1.17101384701691   -2.95872184001608    4.64006291950991
O        -2.11249273894285   -3.07786716726942    4.84628386476133
H        -2.57729705540810   -2.99987965262917    4.00348436370642
H         1.48171643552177    4.32314023675646    5.86698263251752
O         1.98240490043501    5.03766417238168    6.33306811617480
H         2.13533388753535    4.68623725023494    7.21450270030930
H        -4.73010921810123    2.73910517943334    2.79085099905049
O        -4.61941982575573    1.98988012181636    3.40149144571273
H        -4.80118189094543    2.34327051800424    4.27797819938000
H         3.69727319403829    1.16603827843678   -1.61311263410291
O         3.74563514991582    0.62233302719163   -2.41569516083490
H         2.81615567376882    0.52175256212767   -2.69292592399544
H         1.56179180709351    6.73289077322590    3.84983076302605
O         0.76542818000270    6.69246654225927    4.43137529084562
H         1.08229907838946    6.34868670503296    5.27555638711399
H        -7.11273364909555    1.24939622869841    2.99601359961562
O        -7.27696028138588    0.49905885750151    3.59141082099091
H        -6.77782373856302   -0.26010740300748    3.21802947777340
H         0.65015997999660    0.64325091045785   -2.20147226400214
O         1.13867943401602    0.62294578356721   -3.05010547838955
H         0.81945883457292   -0.19463900678284   -3.48874892534113
H        -0.12052794553228    2.43025118593276   -5.27644581795870
O         0.00398501796622    2.60233810721337   -4.32787327954075
H         0.35627384659696    1.78174945457016   -3.91677118672592
H         3.76331868788082    5.30470779830465    3.91264985255060
O         4.08662429408299    4.82430248864438    4.70131422669654
H         3.41379376957332    5.02067715420678    5.38606497126921
H        -6.57898637983471   -0.43114659286566   -1.68794549322836
O        -6.47057061778164    0.43965927384117   -1.26146541729470
H        -5.91433554996099    0.27214257636569   -0.47444146839331
H        -4.67280211939389    5.05498624786145    1.73497161570949
O        -4.29991692361826    4.16417799455522    1.89726449704529
H        -3.45009604680310    4.15928282393686    1.40561151971336
H         2.67147789562056   -4.78829112341807    3.06773342671876
O         3.51076861921376   -5.06131160601092    2.65287895449180
H         4.11935480506455   -4.32509225281984    2.86572775121420
H        -3.49951676205093    4.54032788226758    3.34157197411793
O        -2.91935107988547    4.82615306007120    4.08149802266284
H        -2.01712462528928    4.89741585280425    3.70073736169544
H         5.14918921220827   -1.23976164208456    5.60480970814111
O         5.18841765414371   -2.20477376408939    5.76407891776703
H         6.10948720968898   -2.38130745341768    6.00778506773959
H        -0.26672447058294   -0.18733882135256    6.33749523442541
O         0.39528377231086    0.50649139135943    6.14093128056972
H         1.24084394891905    0.03657405462294    5.98419070735550
H        -7.54555680727419    1.77281352534912    0.96992228328768
O        -6.79133123983179    2.15392723359487    1.44881381242774
H        -6.01676322951037    1.61474895145074    1.23129158959222
H         8.76834460947961    1.93932304659485    0.78331276641896
O         8.62256801722633    1.86697048554522   -0.18425286763028
H         7.66641082101841    1.80706077036570   -0.34804989286962
H        -1.89697069067106   -1.92505881879221    6.08190954837509
O        -1.41138486643778   -1.29765548615317    6.65664462504522
H        -1.90200988907164   -1.15699891609478    7.48413292804661
H         5.20365313404825    3.50369564196180   -2.74091095205659
O         5.62984709448147    3.87592913161638   -1.92672980838419
H         6.32419437883135    4.50817631769567   -2.19461113580329
H        -2.32881415862519    2.05365053112739   -3.94839248930666
O        -2.76766545264786    2.75589580580157   -3.41929994923470
H        -2.25653992993752    2.85042202141894   -2.59190371456172
H        10.04778763324229    2.52577188038538    2.26881960573852
O         9.16796837756287    2.12406909591573    2.38762117681761
H         9.30424701798435    1.30623923840223    2.88549863183663
H        -4.08652576501038    3.24978527409373   -0.80388600995314
O        -4.22456259219101    2.27631039203510   -0.76196648219082
H        -5.13188548738298    2.10938554006099   -1.03688370469787
H        -0.26426458430093   -1.87001190081368   -2.95306080647131
O         0.09459153500850   -1.64393530669596   -3.82990374311937
H         0.82916499051466   -2.23979017219074   -4.01373001635750
H         1.96262924733847   -6.11304373493298    0.64235164593343
O         1.75969972183929   -6.91901210861430    1.17853806310787
H         2.11368546301326   -6.73730589756554    2.05487969878744
H        -2.75278265164654   -4.56303137698145   -0.95622435789391
O        -3.66110290924339   -4.23279819174189   -1.11783061904930
H        -4.24333032979701   -4.76442747130059   -0.55231517365112
H         4.96615692969691   -6.98620709806565    0.15671298072427
O         4.83024222317727   -6.98945990498692   -0.82169994897710
H         4.88913210660977   -7.90480013551227   -1.10651713852428
H        -1.18247820305085    4.34223335658956    1.66622951319509
O        -1.83300337593248    4.48971572856365    0.96391409004417
H        -1.87913426438890    5.47038240739794    0.87021320259939
H        -5.77692128808971    1.83070933656250   -3.16269988679668
O        -5.12132940542407    1.52246119442341   -3.80630732833432
H        -4.25503495084528    1.86571536634765   -3.50103245017232
H        -4.94726041165248   -0.47324778889798    6.03680216579655
O        -4.16901131546478   -1.06850852560473    6.01911876905003
H        -3.67092664890377   -0.81055413502287    5.20962489787899
H        -4.75507737182217    5.26915023419615   -0.50899316774201
O        -3.98048367833630    4.89814498470551   -0.94853708046402
H        -4.07379239587400    5.06211665621578   -1.90945696303206
H         3.47117242151859    3.16483770081419   -3.73496283440892
O         4.32806191967800    2.70996425029614   -3.86699050337636
H         4.21250532009666    1.82819402867753   -3.43642990950834
H        -3.73497438912630   -6.27031944059865    1.72811394179320
O        -3.15712450008669   -5.93335101968395    1.02724872717716
H        -2.25825570711819   -6.19436616524565    1.28651995215611
H         0.52306277550236    7.74400957501648    1.75341872858138
O         0.61947856745076    6.83201800086817    1.48129572709807
H         0.85390772755807    6.84515912993374    0.54539569297959
H        -1.59844140883477   -1.93527809928434   -4.43428051767523
O        -2.56544224923654   -1.88564014773829   -4.46851129085540
H        -2.84317589955552   -1.87957376459729   -5.41534231581071
H         4.03715991293681    5.16640808217442    0.13075091944755
O         3.64644419704402    5.08053899672517   -0.76310264451940
H         4.39746942428649    4.76580558216836   -1.31259488084709
H        -5.82890964609539   -2.22305590428180    3.60132811321565
O        -5.94660946257281   -1.65183468721626    2.81655025199600
H        -6.37932672469107   -2.20536236984805    2.14347847221511
H        -1.58609583414347   -3.06656354612519   -2.15244490400950
O        -1.21833417185976   -2.33575033548514   -1.62440855423074
H        -1.92066456450336   -1.98091816479673   -1.06567853835729
H        -2.21552772737214    5.46564020353874   -1.19898977506301
O        -1.59505872337717    6.00943316260584   -1.70522989642769
H        -1.44460514150780    5.55411396076377   -2.55874582846687
H        -0.42378783312666    1.54784070080025    7.44157055256854
O        -0.76950640231239    2.40588170808654    7.73244495403374
H        -1.32646716036466    2.70642597311854    6.98623805171442
H        -2.69772904345672   -4.18843655118971   -3.77701680280440
O        -1.83395725353355   -4.34934770306331   -3.36525982734445
H        -1.80220639336622   -5.28514438695480   -3.11551014547366
H        -2.92342317250260   -3.68954570231089    8.09271405740853
O        -2.35247819765519   -4.31153531173070    7.62202426707682
H        -1.71661257717071   -4.68430074702800    8.27146384794362
H        -4.89480819138071   -3.94720804838002    5.08703894744395
O        -5.43543370664546   -3.13014415241376    5.02062534747889
H        -4.86045702543204   -2.41311958277981    5.37275136490102
H        -3.38014373036498   -4.89915164705326    6.32798699782891
O        -3.87958322994204   -5.21622653752379    5.55297398769397
H        -3.19592964142829   -5.38380664629383    4.87679056930829
H        -4.06723051073322   -1.38560834116362   -3.84076015729421
O        -4.94509347831583   -1.12529452627979   -3.51439181106045
H        -5.02093064852592   -0.16109116254840   -3.65575808373741
H         1.27701451917824   -9.42359614368236    2.06590558753938
O         1.04120312738736   -9.38999513628935    2.99682957249388
H         1.07679168069899   -8.44141614192816    3.27253272409700
H         2.25125726378873    5.46954417726666   -3.39831350861332
O         2.31573608462198    6.44707680173257   -3.51874794922151
H         3.26061839537316    6.63602970982577   -3.43119853225920
H         1.13343454923787   -6.07887315512047    3.81145509989835
O         1.37351294146507   -7.00722712071197    4.06228587614175
H         0.95321715743205   -7.15080220568011    4.94031248895120
H        -0.86747824394961    4.02464084525384   -3.91624191090822
O        -1.03943378170192    4.97265410066135   -4.07793555117672
H        -0.26602247921193    5.24250898328086   -4.62535898921405
H        -8.31654272037898   -2.44614708955799    4.11154019518443
O        -8.66268726096901   -1.66512085195217    4.59276810760429
H        -8.41703088757626   -0.88440552396574    4.07446943035908
H         0.25363361653057  -10.06361062753410    0.06706073647502
O        -0.68388325843737   -9.97776284116904   -0.16476755425431
H        -1.19680005728017   -9.86409109599227    0.65556964363748
H        -4.09256527515727   -8.21390656117765    5.32100733745429
O        -4.89213728103409   -7.68847607478035    5.49643818731346
H        -4.57666250814965   -6.79225775816012    5.73818637678169
H         1.44167038713096    4.52921067425567   -5.79517103926407
O         0.98854285845129    5.38458077803717   -5.69209057586532
H         1.58501002407679    5.94491352323032   -5.16880343674641
H        -0.01040313009616    6.62409964192958   -1.38415513674966
O         0.94789773391824    6.69743633617678   -1.23071620714212
H         1.36587542000386    6.79891964745400   -2.10803508382366
H        -4.11054265018580   -2.05134583643160    7.45354395985229
O        -4.35591301054628   -2.47812218155698    8.29848762530667
H        -5.16862978757459   -2.98962073587316    8.10402075374961
H        -5.24713290561747   -4.01322436589277   -3.89298558415144
O        -4.49249753976190   -4.57503514118062   -3.62512664344876
H        -4.27649285033922   -4.34693878885234   -2.69339988590492
H        -4.85461221312061    4.88846884424517   -3.90944655931429
O        -3.94693853624377    5.03768503686927   -3.59718007358789
H        -3.47070207692893    4.17561541910492   -3.63610132260674
H         4.77900212220722   -8.01012748980325    1.90182684282596
O         5.07361467341128   -7.08197128536943    1.79591051939023
H         4.40326459330501   -6.47666004339722    2.16637447695960
H         6.94846649608736   -0.02806840659504   -0.42210649720865
O         7.18302486931192   -0.86728633098925   -0.00897195635385
H         8.14181980591054   -0.81372334744352    0.20683852101686
H         2.92487784880530   -3.04235998679326    5.55769727772762
O         2.88435172083877   -3.97080937994541    5.29817073790889
H         2.46907899297762   -4.46127142438004    6.02596505246160
H        -7.92995608210995   -2.20584368963723    1.08724038841141
O        -7.27524344026507   -2.86220948518477    0.75480692660049
H        -7.78692805741430   -3.68272224907562    0.61427138532103
H        -7.34897426966589   -2.57395201077281    7.44561796360830
O        -6.71824023657499   -3.31089866086533    7.34175493259136
H        -6.34006543937812   -3.22870082488833    6.43328817808453
H        -2.10821561566267    4.62970345549577   -5.39051059606929
O        -2.54742841585887    4.37615510959844   -6.22834269481663
H        -3.08310052499592    3.57578372165409   -6.04507198790231
H        -3.22459451001698    1.50401303263691   -5.93206170493403
O        -3.96625739047291    2.11100520256287   -6.15021654918328
H        -4.62444356110550    1.92071908181488   -5.46163197768932
H         5.55326507193782   -3.09155941768994   -1.57907160632299
O         6.27302656110434   -2.51918970884792   -1.89511715670389
H         6.55865091768586   -1.94457684237082   -1.16099847024482
H         0.17506506105741   -0.66077740502598   -6.20827145331491
O         0.32863437337583    0.27380296767001   -5.98320786355587
H         1.23844730686344    0.35871506841200   -5.68389298643061
H        -0.52914936881182   -4.28309109200790   -4.39125728742403
O         0.34777643530816   -4.18667076149491   -4.81968878427173
H         0.44236787891254   -4.87946076753617   -5.49471773964372
H         0.65820623602165   -7.31517141645212   -1.19672801477442
O        -0.29689740058328   -7.50250411442782   -1.13716532243064
H        -0.42516573190880   -8.41616999102242   -0.82614488105638
H         6.35700817492956    0.79767937450073   -4.21226272175809
O         6.95958884414036    0.58359274589028   -3.46186559393180
H         7.43289675087558   -0.21536103073551   -3.72940133014396
H        -4.77867818095843   -7.21648869203182    3.81199708508847
O        -4.77822965088761   -6.91589242596474    2.88669386589569
H        -5.00604539892931   -7.68941233845820    2.33951333528647
H         9.10794589145404    3.14336864628590   -0.89913430926542
O         9.45053678090515    3.92025904631551   -1.44480826638699
H        10.34295046594759    3.60757111961771   -1.70851256504472
H        -5.57551703981296   -4.50163060298779    1.44468981376109
O        -5.41527750848675   -4.36810720663164    2.39667496801769
H        -5.16117972015304   -5.24775228363615    2.73086323124067
H        -8.52325724159526   -5.66124273611655    0.73332797710225
O        -8.77083072939550   -4.99471932991935    0.06693923507477
H        -8.46727290104755   -5.33920949033813   -0.78578379871473
H        -3.05553132735345   -8.16953079902627   -1.06883261487592
O        -3.16732532622770   -7.22536878228542   -1.23111465034809
H        -3.23548321388373   -6.75869038260994   -0.36188919463491
H         6.23783943056047    1.06148083966512   -1.93092851629633
O         6.12595877167465    1.47124995555022   -1.05088172776271
H         5.88662427437632    2.40765356458560   -1.24143832319010
H        -7.80942864987147   -4.52301290727271    6.67244322804881
O        -8.25651496055256   -5.07051794868985    6.00138420943364
H        -9.19719795022689   -4.80203793934523    5.93876424650095
H         2.15323878621641    2.02450738082901    8.56854235713092
O         1.96679184531735    2.78919577901651    8.00421878190389
H         0.99689101015236    2.83754763558686    7.96372338296992
H        -6.53548028135807    4.46926408271160   -5.20816641425170
O        -6.50444942872968    4.86914460965401   -4.31050508377195
H        -6.50911041942940    5.84937722470047   -4.46986532996890
H         2.69890767774940   -1.61170559055906   -3.16833897249517
O         2.86761947381751   -1.66776226244105   -4.13254405671722
H         3.70495423839740   -2.17145815596242   -4.18011657754776
H        -6.26541774140795   -6.07316415415603    0.54331803158745
O        -5.78091160685461   -5.45672466200546   -0.03771666763453
H        -6.36288175016564   -5.28478883907558   -0.78692643950096
H        -0.70549089604648    7.59018956188754    3.83409585087936
O        -1.38059828833255    8.03723028812013    3.30277728917588
H        -2.25862872636821    7.91328110739189    3.73143228814723
H        -7.77581046237706   -4.39294216629528    4.43675757695777
O        -7.79421886696755   -3.98290503593678    3.55211776182392
H        -6.90918001467949   -4.11484383184985    3.15278569670500
H         7.85500054838467    2.02635854849215   -3.55755990059079
O         8.25402149223922    2.91007870231919   -3.70878555437598
H         8.68554723778911    3.18722483612602   -2.88351832090701
H        -9.99579658236135   -6.08969634987511    2.80954769007021
O       -10.07566940651894   -5.11665992214419    2.79929529470457
H        -9.17100205238773   -4.75818635614621    2.92758742482965
H        -5.75380375423486    1.36507116023256    6.04176010393480
O        -6.28871276624750    0.53399910423202    6.00168347502440
H        -6.67689246387108    0.50617545396938    5.09108260561396
H         5.65005142824826   -2.47390130519423   -3.48086874525988
O         5.22190037124166   -2.80565567826268   -4.29117206904958
H         5.41248184784718   -3.76348540425083   -4.31209636200538
H        -5.85061633294219    4.77438287502192   -7.16192216014374
O        -6.60214264429298    4.20109208025765   -6.85214313861447
H        -6.49348090343813    3.37115313173336   -7.32220194619453
H         2.16036219498011   -6.91437300497431   -2.53256003588727
O         2.21498407293761   -6.68602920762958   -1.58916175144190
H         3.14424779934975   -6.79543272692962   -1.31771688055824
H         7.98090884153614   -1.49607091606028    6.15489150563195
O         7.94644144783547   -2.47147176997598    6.08961039653575
H         8.04756499179933   -2.64704334803698    5.12967846959136
H         6.27500657558638    2.55137379243272    4.47119232366869
O         6.21675285398601    3.18799180002255    5.22516360505904
H         5.44317679976089    3.74795035896398    5.04373916041642
H        -0.10908677572284  -10.67832211478295    5.82413934800779
O        -0.39793017035602   -9.89660757266349    5.31416199238525
H         0.05729671171501   -9.93006745558175    4.46035060832057
H        -7.63396249221236   -6.34794368194135    5.06204500907929
O        -7.30618735470429   -6.98939050698074    4.40732741722648
H        -6.54542557689042   -7.42007620403833    4.82537071353751
H         0.01264925461855   -5.72331813806704    6.36730024502119
O        -0.24373938883140   -4.88298620010003    5.96348608645485
H        -1.03963437440535   -4.57664622743631    6.42839598048958
H         1.74334706636426   -7.03018864064495   -5.00314846007647
O         1.40943649824786   -6.83245952533870   -4.10939770000191
H         0.44589019955248   -6.92965660701959   -4.10308874750493
H        -1.00227877165141   -7.20427831568211   -2.62119067092537
O        -1.29418473555891   -7.02597069416822   -3.54348326103124
H        -1.95896686765988   -7.71360060935781   -3.74261065839941
H        -7.59742444005653   -7.65627650435999    1.57747184941043
O        -7.40721407811056   -6.70352512050206    1.67195354998494
H        -7.23766491184551   -6.58989332787460    2.62278349252667
H         5.20851792170168    6.14341776903368    1.69219113553861
O         5.06448235733860    5.20333086734997    1.47092027691044
H         5.95493917227035    4.80276406828970    1.51033009894619
H         1.18151031110966   -7.74185966122003    6.91002351880387
O         0.34888263810715   -7.55909685524645    6.43319255601518
H        -0.02610560931199   -8.42186823100473    6.18132231966621
H         5.41508905756588   -1.69268738483908   -7.26516332994287
O         5.82129257619582   -1.41202050633602   -6.42295334011686
H         5.43829787047260   -1.95559753348452   -5.70636790915563
H        -6.56365634573137    3.97661038846155   -0.77242189789696
O        -6.65923205113262    4.54618405862172    0.02054631416529
H        -6.67718127929910    3.92742330698061    0.76726295270388
H         7.74929822023297    4.41768498507409    2.82298888356331
O         7.51856874383764    4.27585478447402    1.89984395988226
H         8.20399961974286    4.72697425772688    1.37766013219972
H         3.64900792595201   -9.07808572542862    4.50096837802961
O         3.33159015428191   -9.98299631732852    4.29598311254651
H         2.43603929887466   -9.86524465605577    3.91308242801717
H        -3.86963170427176    2.62676029098581    6.06016901077854
O        -4.83852866254882    2.67313837529613    6.20302637524494
H        -4.95381406737802    2.77729881444231    7.16613286952224
H        -3.99864655152660   -8.13267002312852   -3.79103778790205
O        -3.29891724555150   -8.69179661197342   -4.18508890895957
H        -3.44609995689952   -8.63499032472048   -5.13952134250327
H        -4.36469835857710   -7.02506923553458   -2.20691358574183
O        -5.05999382795916   -6.99585175427438   -2.93249231074418