1200
 energy: -2037.329683531624 gnorm: 0.000845652899 xtb: 6.4.0 (d4b70c2)
H         5.56646654496724   -2.65567638860244    0.90407289047146
O         4.81562644115056   -2.05040944922838    0.79784884951263
H         4.22369640501670   -2.18804157216787    1.57808142280738
H         3.06291875507997    0.65117645810273    0.80254213950605
O         2.12581209542394    0.41411725023748    0.64751022593369
H         2.15539614569146   -0.40062549555211    0.10987443796222
H         3.93407065537478    0.56266509154790    2.73558532437412
O         3.45209439843958    0.36856704493886    3.56369358339016
H         2.82651884819793    1.10434480211081    3.70253981846669
H         2.25735491699786   -2.19053402199706    2.30360149928287
O         3.11009103252519   -2.16736273765880    2.75846295587506
H         3.17773899605355   -1.29670817509010    3.17992011027864
H         3.37785957826933   -0.53576931551452    6.83583490470598
O         2.71487817404298   -0.62323615105785    6.12151517591543
H         3.07235807050670   -0.16899405176442    5.34896452358026
H         1.64509407436978   -1.78084353396431    5.36205633307170
O         1.01356739524897   -2.13001719826335    4.71424016610424
H         0.94655976746498   -1.46315671679110    4.00711982547530
H         2.71859149643157    2.95056612731061    3.32754802492292
O         1.90555478328513    2.57944444992771    3.73887194285790
H         1.25596014434842    2.53270894645730    3.00617985749251
H         3.48277766630300   -4.29759223348882    1.54697520958054
O         2.96046780453593   -4.25763057801793    0.72092957010791
H         2.21295833301495   -3.64169110133167    0.87289558804164
H         6.92357191070601   -0.76886335786639    1.98133554195576
O         6.65340738859716   -0.66555223095492    2.91464101923146
H         6.54240060628456    0.29138821726514    3.05386879303643
H         0.94572005546691    1.75929757798842    1.03129131497869
O         0.45870566714396    2.45393589841190    1.50335757190551
H        -0.45126054419494    2.12231285148797    1.63013495411128
H         7.03096106392043    2.57522011526645    2.84528107683124
O         6.35510925300117    1.94364054702208    3.17231028881766
H         5.49164595379053    2.26834416570256    2.83767350145421
H         4.87632664712055   -0.37656561656748    0.99500575531163
O         4.68251730366312    0.55668695634851    1.22168557384095
H         5.34574465176693    1.10043798752797    0.76864788350777
H         3.94809612342993   -3.99477635381361   -0.58873103374046
O         4.54831300235965   -3.89691578573599   -1.35957903987195
H         5.07167619231396   -4.70749043097361   -1.36712460316284
H        -0.19542889367036    0.98459899592076    5.23978592708051
O        -0.68090022488916    1.19204225852747    4.40694721572131
H        -0.10926936133765    0.83047498425734    3.69804608951336
H         2.84752257928591    7.06492117855196    2.66151506751161
O         2.67562034967054    6.28754788643902    3.21406020996029
H         2.42593078504618    5.58964309472336    2.55791551669239
H        -0.07291612481304   -0.73750958001579    2.29504782639334
O         0.68126929980294   -0.31094031822149    2.74681782594186
H         1.30338652558797   -0.05796059426022    2.03084737113885
H        -0.84117725633371    0.18761925237192   -1.16641661493214
O        -0.23788454078641    0.43347895707108   -0.43763442924677
H        -0.50140857111027   -0.12612000514066    0.29804499931450
H         1.80972778883904    5.23521963423503    0.56269338426118
O         2.08190061271654    4.65874337547712    1.28097513529500
H         1.42445041626403    3.94909521559105    1.35209786604074
H         1.35682831267001    4.72998592213035   -1.24029344273427
O         1.48240106618845    3.77474949955002   -1.36002867355857
H         0.58114934440903    3.38178054846416   -1.32897502816331
H         3.85008652858028    2.95256893733531    1.52271567083769
O         4.10335275255060    3.13091633476512    2.45545858949930
H         4.51330158726712    4.01288715190089    2.46478033978350
H         5.73922156575226   -2.06781396645695    3.29408188014293
O         5.65103639214042   -2.94533135104592    3.71165368509449
H         5.39954038816818   -2.75792079341308    4.64579615953638
H         1.94934424307423   -4.79480503220864   -1.30141408500442
O         1.38891789326830   -4.00479492280420   -1.42347367477291
H         1.16717332453159   -3.94841504053224   -2.37074021076352
H         0.09938318763137   -4.65622144217036   -0.48876362585202
O        -0.56879943062429   -5.15211473711796    0.02577164942043
H        -0.44798660496958   -6.09178310686345   -0.20584602111122
H         0.43933970266504   -2.44710149920853    0.31243577489112
O         0.93471321952185   -2.56181347838494    1.14036787716382
H         0.33683629173693   -3.07779193183177    1.71863162594857
H        -1.96478654729015   -0.21422951747293    1.66016168929155
O        -1.54464815156632   -1.07534160583880    1.46736090712334
H        -2.04672660069796   -1.76155738726931    1.93068352036504
H        -3.40053981338611    0.19196961578627    4.02073287090911
O        -2.72213194342786   -0.47242613606734    4.21022087297469
H        -1.89285858732899    0.04912164973853    4.27152008142958
H        -0.28186990872735   -7.94581691112293    1.87904922997079
O        -0.18967738606260   -7.09417829882553    2.33815012388523
H         0.68240425716117   -6.74532784023286    2.06613993430280
H        -1.58569205940251   -3.87864625087488    2.60636880566906
O        -0.69055532929568   -4.18718791852511    2.41919666785410
H        -0.72749746763596   -4.69607822748805    1.58005721923254
H         1.59048155569709   -3.70688379316968    4.22135950926534
O         1.59352298202334   -4.51561236435630    3.67766246548624
H         0.72400737841192   -4.52780028273441    3.24342496533382
H         4.25563696936581    3.51706529503995   -0.28824581866837
O         3.64701396105752    2.76141406485993   -0.14537184422925
H         2.79127731911227    3.05269762324674   -0.50696994348818
H        -0.61564698025069   -5.44781650666026    5.02170965410252
O        -1.29231458752977   -6.00282454571244    4.59034264342490
H        -0.87449208422169   -6.39102160192818    3.80739862634505
H        -0.70576918623545    2.00764236876246   -0.74042457381274
O        -0.94404803124386    2.90540366707920   -1.05719071868885
H        -1.29280443475344    3.39101855013672   -0.28821888238013
H         2.30862318153581    3.78342385521266   -2.76395582992563
O         2.89086630565354    4.01918459675641   -3.51775438422837
H         2.45411606697150    3.71743462693606   -4.33711109622114
H         4.84014699927041    1.00529900273401    5.86003570412264
O         5.37848178407408    0.33842774936261    5.39461145412923
H         4.97562580632757    0.27910984810168    4.51399968264437
H        -2.05982482958884    3.97037169075766    4.97125561439700
O        -1.65319003358677    3.34293083913335    5.61583816192629
H        -1.39527786260620    2.55421021282339    5.08997108396298
H        -3.73012531674855   -3.48495892087445    2.94345530937451
O        -2.96884820668618   -2.86102517883400    2.94986961473498
H        -3.25475503351158   -2.04858039060856    3.40022533327295
H         7.80482229092686   -3.63583053561327    0.86070106280443
O         6.86923880513541   -3.89046303412232    0.87458308434916
H         6.75762110537992   -4.49142498229138    0.13276042401199
H        -4.62558175391628   -0.53533378320927    2.19634976499111
O        -4.36408611415671   -0.00179011292669    1.43223915524304
H        -3.98942169504858   -0.64125545672531    0.79134989160682
H         1.33995169855566    3.55168361184257    4.93288213061676
O         0.89120081313177    4.26707541712195    5.45325714594272
H         0.01490191924087    3.91279907644691    5.68258129650702
H        -2.69708445355882    0.88117980543074   -1.52932401291864
O        -2.31043580468095    0.08645340795269   -1.94009994377201
H        -2.70994629556669   -0.66145280850691   -1.47166419086853
H         0.29415959697109    4.72744131009032    3.81877200911595
O        -0.23720053903486    4.85466166220235    3.01919780623983
H         0.03287962939887    5.71052742178113    2.63426982851714
H        -4.19632279803626   -1.72842138011898   -1.24304514234561
O        -3.65851150280707   -1.70490955255425   -0.41812975789104
H        -3.52210654690863   -2.63017278169425   -0.13474848148089
H        -1.99677243207748   -7.16678497558676    5.71864134819727
O        -2.57117806825903   -7.92973363256375    5.94546407634420
H        -2.23477618422065   -8.63852526643528    5.38135109027077
H         2.19767814125837   -2.54434635156674   -1.01832891257548
O         2.67514146906533   -1.69357825845958   -0.93472967556957
H         3.50185744068468   -1.87394180628436   -0.45738742560646
H        -2.61816982892072    1.69610012876012    2.52122276611276
O        -2.06495917100964    1.54527821373207    1.74742560971670
H        -2.61675216790400    1.74573119847861    0.96562433331158
H        -0.52131530670504   -2.82693031778454    5.00695678793301
O        -1.43669285553538   -3.03524788876280    5.26711713157850
H        -1.97127978626711   -2.96545759364069    4.46775953654967
H         2.03034601180037    4.86243812559909    6.63941035906276
O         2.83197177785853    5.03065384683004    7.17020524414658
H         2.83335902694747    4.32264009971767    7.83264373653793
H        -4.31967235608465    2.44640772608538    3.11885753707042
O        -4.05966250440717    1.81030634014741    3.80553856885183
H        -4.16191434263612    2.26477333255618    4.64656011615944
H         4.22565199979255    1.45441080557830   -1.09095202889234
O         4.45174066379312    0.84644461880684   -1.82256003288544
H         3.58341307839715    0.60863900890008   -2.18132247421707
H         1.37269240712575    6.86452016039734    4.19139627573504
O         0.62198572162663    7.04572014476889    4.79306870860044
H         0.57040092223490    6.27571823697739    5.36600555930951
H        -6.61686962298659    1.29114199104581    3.57211164042716
O        -6.73611830291396    0.51306253428775    4.13386160478873
H        -6.14902832049885   -0.19948762637460    3.79113302903016
H         1.62348368354906    0.93166710673587   -1.24647374208265
O         1.77667894733437    0.85087826832371   -2.19728751589687
H         1.26617092996359    0.05774418244755   -2.45880357983718
H         0.39248347815708    2.09224486774280   -4.47830136188967
O         0.24312809719456    2.46006800918751   -3.60316536680818
H         0.83583733491057    1.96042118937326   -3.00365417353884
H         3.73576788962767    5.43995465001324    4.23041012610294
O         4.27291118683136    4.97513113368202    4.90370262480822
H         3.79572479391530    5.07966602505868    5.74841858628289
H        -5.97052642984491   -0.13890234522868   -1.34969224821635
O        -5.74440112455365    0.64274961553479   -0.81427975903752
H        -5.43108324100598    0.28969413852516    0.03788696874225
H        -5.24694737358245    4.05296184657406    2.17310397587851
O        -4.31716488259718    3.77385620783766    2.07064753129140
H        -3.98918535011289    4.09030912965497    1.21955037311052
H         3.37567580673951   -4.71206128940117    3.48998925882151
O         4.16727284451891   -4.94279487227056    2.97439014396987
H         4.79244164861485   -4.21875304767282    3.19327473576737
H        -3.29184310170560    4.50665829540432    3.14871524351763
O        -2.71890579781704    4.93749868212164    3.82254789051775
H        -1.82288682260752    5.02891713712143    3.42192005839074
H         5.23523683138154   -1.24867461181033    6.02015913897730
O         5.33366094599961   -2.20536128541490    6.19778277746175
H         6.27056034433655   -2.29878419372002    6.44071054979151
H        -0.07078055333098   -0.15795263634930    6.92336290681358
O         0.47789880984058    0.61519275734580    6.66448170525316
H         1.38746570611973    0.25745067307234    6.52381694008466
H        -7.03733785866054    1.12806743082081    1.64243977951301
O        -6.35008553725318    1.80703288902009    1.78189267185733
H        -5.49749462822681    1.35122882464388    1.69384271604524
H         9.32573316535074    1.22939596454164   -0.07876457171450
O         9.44156293331263    1.05059987487257   -1.03813643426602
H         8.55805720708118    1.06318674427571   -1.42989894461006
H        -1.27623629195056   -2.09370327691636    6.62552490114362
O        -0.85338711779007   -1.52513539550017    7.30662288036673
H        -1.44903303269503   -1.46550417820500    8.06793146534234
H         6.52181732025009    3.49228555659808   -2.33361622435782
O         7.19337763542708    3.83572255538519   -1.70303694203641
H         7.67061044985844    4.55490876156814   -2.13867301858924
H        -2.11738814571285    2.10090656211638   -3.75136775403121
O        -2.59263387105555    2.70875735343101   -3.14512591563075
H        -2.00303452380821    2.77994077315980   -2.36572473907873
H         9.89913085653564    1.94400476189116    1.86180593086643
O         9.03055021534525    1.61585886653124    1.55620326175882
H         8.76176007636439    0.99318240118180    2.23816404818543
H        -3.58489074733825    3.01864457075102   -0.58318320406291
O        -3.47812318777584    2.05007488274288   -0.51467703586880
H        -4.35242518251841    1.65839449145909   -0.66912690038789
H        -0.05023015558184   -1.55081316165963   -2.08981166593954
O         0.26801219658090   -1.20557452526671   -2.94777148974243
H         0.70567893433406   -1.95915655094046   -3.36867379585429
H         2.46280881847539   -5.82437654456736    1.04709215284047
O         2.31019063522895   -6.60861251042928    1.62214129479774
H         2.80673710366974   -6.43538854921798    2.42681022193413
H        -2.16690616178373   -4.61642299064097   -0.05182353808412
O        -3.05258751796615   -4.19593629317590   -0.03050760449578
H        -3.64445023587884   -4.82621264577611    0.42285596765075
H         5.55834518243837   -6.55934428435739    0.19844645388980
O         5.44102465445040   -6.37990325554879   -0.76596075354868
H         5.75949429965676   -7.14585287935661   -1.24270595051721
H        -1.12256567521844    4.23579359450063    1.57603288446743
O        -1.80716812539178    4.43684098954551    0.92320637561240
H        -2.03514052232789    5.37618568772174    1.07083508332286
H        -5.48436288087703    1.51850529323276   -3.27854776049568
O        -4.70568693034413    1.00156410383746   -3.55450831944440
H        -3.93502450445926    1.49613752011557   -3.22639587569588
H        -4.19774410583985   -0.34739414869279    6.62488106436831
O        -3.51568218980603   -1.05431320300398    6.66609273290232
H        -2.97104450446991   -0.90092502802579    5.86696164924294
H        -5.01746167000090    4.39842414910158   -0.48365747263397
O        -4.08307911073765    4.65071116007447   -0.64544058834248
H        -4.01814641867094    4.88274308030533   -1.59012047657393
H         4.37625336221130    3.32894639463667   -3.36319967298570
O         5.24378407246781    2.88681453992042   -3.26112075245838
H         5.02674895165564    2.02690202274598   -2.82914076914915
H        -3.26932052346048   -6.64869460739118    2.52712978935697
O        -2.71916706139555   -6.35194652179563    1.78657869272466
H        -1.79488556263042   -6.51869162454038    2.02583031735340
H         0.46881737384720    8.00865579159705    1.81306555126932
O         0.35245417488709    7.06095776120106    1.74975318521984
H         0.53498403453950    6.79739444042954    0.82927131699561
H        -1.38740957521750   -1.75824828698203   -3.55298313230589
O        -2.19039071740853   -2.22505139381265   -3.82497138711153
H        -2.34649772055028   -2.01319142792987   -4.76777742623611
H         5.48558610101798    5.01410188579961    0.66822810585127
O         5.22702330254045    4.85211451060086   -0.26621080465201
H         6.03401940109815    4.62561989175578   -0.77452072642658
H        -5.31212840648942   -2.14165733358623    4.12787715483903
O        -5.36478987452161   -1.55883626962260    3.33879192525744
H        -5.82879763080237   -2.04546736236093    2.62896415062548
H        -1.11953876058168   -3.21814969117435   -1.41099225824116
O        -0.84859165965937   -2.42681025425894   -0.91458139620211
H        -1.58609302110722   -2.14935926893815   -0.36053347275624
H        -2.03368460863683    5.24069754771156   -0.84376660403345
O        -1.67313395347381    5.85797690612437   -1.49371298498476
H        -1.48442106438044    5.35026390517790   -2.30629675754313
H        -0.09842093816243    1.83650060445806    7.57508557066618
O        -0.48553479562933    2.61902075312784    8.03784880165186
H        -0.90982087453398    3.12915800417353    7.33789998077903
H        -2.40839660431933   -4.40792104790308   -2.79645327814285
O        -1.49021158629776   -4.59798997699058   -2.53808017359090
H        -1.37648902028221   -5.56474304063632   -2.53513535144042
H        -2.44380830475661   -4.23088060278049    8.67457196534242
O        -1.78464289828614   -4.46478637041134    7.99109865925274
H        -1.22641917595757   -5.15555333665522    8.40393297276214
H        -4.43528469784192   -3.71250634189497    5.55325456005534
O        -4.97451400638206   -2.89397075629824    5.56918325473172
H        -4.37206522381442   -2.21961351660955    5.98082061447984
H        -2.76421925486502   -4.65182748483639    6.63705628822987
O        -3.33836967819323   -4.91286982168667    5.88017253595975
H        -2.71080947558498   -5.19736713315026    5.19051682079960
H        -3.65748557789043   -1.80475647564962   -3.24319486277126
O        -4.54031800684862   -1.57876704993226   -2.86173704525976
H        -4.69871011715880   -0.65976677152966   -3.14825485704391
H         1.81121488020579   -9.08756491359595    2.30742197123577
O         1.63826702558056   -9.07779950942673    3.25797458954868
H         1.81898388578481   -8.16485257836308    3.58582957998434
H         3.47959431061095    5.49478233834781   -3.36690549764699
O         3.85705087270395    6.40531952486461   -3.33323552091532
H         4.82273539670794    6.30998827923943   -3.19484957856184
H         1.97740372081263   -5.92776497344814    4.31344076786701
O         2.21462236033081   -6.86179624988511    4.53694472211431
H         1.59782338571322   -7.10621296773432    5.26338670859945
H        -0.43900765995398    3.91308166691399   -3.54585401325614
O        -0.76467452802722    4.81928272609593   -3.76895320168115
H        -0.04257870162386    5.15832630833500   -4.32866665143974
H        -8.15830250695777   -2.13333317199523    3.95519329261462
O        -8.59631571363038   -1.34697278368484    4.32748074783111
H        -8.05647452522374   -0.57149527458922    4.08828729601243
H        -0.08565491802047  -10.25071743482282    1.64911622825919
O        -0.41264979554730   -9.51931883582424    1.08317760080243
H        -1.38075221529707   -9.50773853555144    1.24069697971723
H        -4.31583575753676   -7.47147843555697    7.00820549811049
O        -4.89292031745145   -6.70745902714412    6.92635407069602
H        -4.31561200873451   -6.01141932995275    6.51161330862300
H         1.71263990521869    5.28521186793348   -6.11744794885037
O         1.20901117073970    5.61594041771094   -5.34719255688142
H         1.69230631363389    6.36180195866729   -4.94753147539761
H        -0.10600569271775    6.19804270412230   -1.04791340077679
O         0.83267299591051    6.28124270992597   -0.76489116351358
H         1.16530242300834    7.14494811666804   -1.09044337340106
H        -4.12331405866987   -1.28205150819878    8.37382757520107
O        -4.72189928343497   -1.51357331534751    9.10363104576554
H        -5.48856341392247   -1.94351436086522    8.66613385251768
H        -4.51058103585262   -3.46952997173852   -2.68812474572197
O        -4.11414426116465   -4.31322941748963   -2.44885868383295
H        -3.80478765193496   -4.25090696892020   -1.51485604153317
H        -4.63130043419228    4.92237300369823   -3.72673038360317
O        -3.77664816741187    5.03281867486199   -3.26528274233602
H        -3.31475064204721    4.16267915483262   -3.31571386649050
H         5.28527688954534   -7.78548303687607    1.85728366426790
O         5.64953525308005   -6.88473877136086    1.80031521740838
H         5.03864255969017   -6.26946351442599    2.24714641308304
H         7.35808693556789    0.26027018618700    0.29263705495584
O         7.55553993776807   -0.68361638256799    0.45043547022298
H         8.52980887509228   -0.76905489660529    0.51517629481999
H         3.75278562122721   -3.45713938114078    6.12919247470736
O         3.53611737623405   -4.30817658521869    5.73296215893255
H         3.09106063395169   -4.85522247709875    6.39989699784067
H        -7.30936753766239   -1.58049777413512    1.37729424133428
O        -6.66135711281799   -2.25915482449659    1.11849639889958
H        -7.14459224489567   -3.11631377729871    1.10930711571801
H        -7.13921303812888   -1.85852209453336    7.41470448743233
O        -6.60090199280863   -2.67382416573433    7.59699213546502
H        -6.01934274747878   -2.77150521382675    6.79987055825068
H        -1.87579440972326    4.23281546999658   -4.97838687914906
O        -2.24925767996942    3.88922290813661   -5.81594760097119
H        -2.82914325823390    3.11846870070570   -5.64581408561011
H        -2.90894920281449    1.07043689537947   -5.75434645026053
O        -3.69057574700175    1.61839265000536   -5.95103141300229
H        -4.30470154485650    1.38499256002174   -5.22747981872661
H         5.61774341307489   -2.40665711956719   -1.23571292468112
O         6.36793020190939   -1.88039986398767   -1.55918756183406
H         6.76481014480663   -1.41956460109263   -0.79280486993459
H         0.49531380408795   -0.51256871800412   -5.64908411923208
O         0.84075839393330    0.32089211542239   -5.26114237705313
H         1.42322523304647    0.05679735859331   -4.54583947128077
H        -0.36417850410184   -4.03436437400064   -3.54287658770258
O         0.45762916851612   -3.67347294989128   -3.94731198940213
H         0.77488944160968   -4.29860986756746   -4.61984990877864
H         1.21470824943129   -7.18505093370860   -0.86419301672337
O         0.30650000872399   -7.50813748851520   -0.72150980923616
H         0.37341830257666   -8.27737070349033   -0.14472925819029
H         6.70888791497762    0.83867155973358   -3.58610046930019
O         7.26235132036383    0.81154218225040   -2.77955615524297
H         7.55824241636319   -0.11455515423901   -2.70225344870940
H        -3.67789521423633   -7.28786103620648    4.69135020782132
O        -4.23669330909920   -7.05310322424214    3.93147413575027
H        -4.90230196988566   -7.76070879478826    3.87075610890669
H        10.07123153215315    2.39639137297355   -1.60974442286428
O        10.35231493797104    3.29651076853425   -1.93671894991729
H        11.28886264399041    3.35681125909064   -1.62061038803815
H        -5.11954249283902   -4.89216061206598    2.12844229700320
O        -4.98387682801663   -4.56337292622274    3.04364819959179
H        -4.73203246184927   -5.36122880345281    3.53899459874122
H        -7.75234325538245   -5.12928998915002    1.43262242439659
O        -7.99688217716710   -4.47686719848541    0.74569317253489
H        -7.54245264816640   -4.77878108892195   -0.07179929508776
H        -2.56473416280010   -8.25859991284693   -0.70877100664777
O        -2.61220830338434   -7.29231660043558   -0.68196837158107
H        -2.72694400001652   -7.00191069763456    0.24693441239085
H         6.33699486728230    1.32140114453908   -1.10448709678886
O         6.61224130578643    1.68960027394666   -0.24770645965687
H         7.01841181554478    2.54335472017797   -0.44413214937579
H        -7.77266377734329   -3.76241748135708    6.84140510120251
O        -8.10259459446339   -4.33336405706525    6.12648513773349
H        -9.07144940477011   -4.23469680170523    6.07174376972878
H         2.42675957985749    1.94292060092776    9.05993871116709
O         2.26322751457199    2.72112725921426    8.50075178625114
H         1.29776841306422    2.81171979253439    8.46296873830602
H        -5.86461183163629    4.18365874987088   -5.33519825213781
O        -6.05151342402099    4.77688704986108   -4.57089356277774
H        -6.23192990614408    5.63714915002472   -5.01823571106223
H         2.95529121042663   -1.46933032158234   -2.56172461012364
O         3.16226517851304   -1.39246487071211   -3.51883233974867
H         4.02851552122559   -1.83849100304052   -3.62694406760360
H        -5.07539764351779   -6.59879739454018    0.90368203082774
O        -5.11099620102678   -5.66016030122715    0.64464754877968
H        -5.64973016364520   -5.59424268491893   -0.15897956065689
H        -0.77508399161391    7.64030866409137    4.05601296730314
O        -1.62265651816280    7.99106433699231    3.70002532297575
H        -2.28363642597047    7.84164440646911    4.39004985197282
H        -7.54405041346168   -3.89943388321569    4.59397412419795
O        -7.43387993874261   -3.66826380847551    3.65120208045163
H        -6.54971031307984   -4.00632603988551    3.39784895678751
H         8.33829746062091    1.86350600106833   -3.61277557525152
O         8.95728121021293    2.46032231145930   -4.09571246213817
H         9.54363108914342    2.82614298909626   -3.41015340175628
H        -9.53378231528409   -6.06016258846845    3.40016284635900
O        -9.70204566544448   -5.11450403226170    3.23392566695820
H        -8.82956790546329   -4.66589443827622    3.23358668124962
H        -5.01215932317359    1.56778676629120    6.36722409711492
O        -5.42418510727482    0.68885832462040    6.40392169361510
H        -6.00118150700222    0.62497789387836    5.60760026950778
H         5.97579541735714   -2.06588428847024   -3.16306974643377
O         5.54108047152004   -2.45946109041465   -3.94248923713363
H         5.64883392084035   -3.42785247225007   -3.82614867159823
H        -6.23496371809926    2.11761813766322   -6.06868845775634
O        -6.84111807166281    1.79603411388634   -5.38913234611088
H        -7.16678854449115    0.92791375791820   -5.66827825334738
H         2.54757616387258   -6.49628285273154   -2.17845237301782
O         2.70775201838340   -6.35161789607357   -1.22337356109834
H         3.66331865569803   -6.43546504207603   -1.07307356853545
H         8.13830425968015   -1.16297532312335    6.36481752690648
O         8.07577964969353   -2.13786845655081    6.38310395407630
H         8.27399588761316   -2.41875679492097    5.46437435603248
H         6.29726273738418    2.56059551488402    4.69252336804195
O         6.17223330196630    3.12760029937480    5.49058234449660
H         5.47671166935095    3.75799401141879    5.25370216348636
H        -0.73940376851073  -10.12050900128812    4.58574513108285
O        -0.93666382101343   -9.24095250338529    4.21579429164580
H        -0.14674748911183   -9.03456205634278    3.68447864190486
H        -7.40753877339545   -5.80039226227902    5.62931556748353
O        -6.95186071798645   -6.56819276347182    5.23661115240837
H        -6.16838200874353   -6.70738017034641    5.80328208006177
H         0.61389415945876   -5.69198540571956    6.63492182400072
O         0.39922517792804   -4.81439282393391    6.29803132109668
H        -0.39411732767466   -4.51209722407535    6.76445144721718
H         2.09901963269579   -6.74060465148666   -4.33712403786516
O         1.61788397695950   -6.28498198847678   -3.61110145238779
H         0.78243209033318   -6.75270837357252   -3.48066953333824
H        -0.57435748968076   -7.45025262302569   -2.20096666636755
O        -0.93743344951507   -7.16193168447210   -3.06355644621695
H        -1.65369125227249   -7.77966373169600   -3.29372471889174
H        -7.42526403426395   -7.18808176136323    2.27608121367055
O        -7.13974829687199   -6.29197300129671    2.50485734260985
H        -6.91717490625733   -6.30776301980357    3.44852170985550
H         5.64346103954981    6.22623662036925    2.49599080033365
O         5.68116679886192    5.27897137820293    2.26800792222204
H         6.56716670229480    4.94040424283902    2.50105282070471
H         0.80143208373676   -8.29306678686011    6.85271728209236
O         0.39631922407011   -7.67571715048772    6.21185940114251
H        -0.12049349505083   -8.20970825148662    5.58874416787327
H         5.89122150752057   -1.69304001142707   -6.83261843799066
O         6.56076259879081   -1.58620223875737   -6.13733958806230
H         6.15044790905337   -1.96612859013235   -5.32305640640191
H        -6.45297387263124    3.06007100117932   -1.03924426383659
O        -6.41212833494532    3.57208136482378   -0.20992355530478
H        -6.47179082796225    2.95900893987731    0.55504333512856
H         8.66768924303936    3.88995808697698    3.34926349842296
O         7.94952581104948    3.96311365733655    2.68609447875662
H         8.38049407483670    3.85964371406315    1.81991950801710
H         4.23477631451096   -9.18438410854701    4.76126909204663
O         3.84703422347532   -9.97614357601263    4.33664203266285
H         2.97285711093679   -9.68844477082287    3.96018063601427
H        -3.24376245727606    3.15692132301484    6.27732478124660
O        -4.21653983889106    3.09027997564691    6.34012522840248
H        -4.44755252874810    3.18278838431524    7.29747239231983
H        -3.71978292700054   -7.88438206745737   -3.39014959669495
O        -3.12878753046803   -8.48809294940711   -3.90100629571117
H        -3.38553256240035   -8.35044414928145   -4.81835906070498
H        -3.83959138630520   -7.00530861129658   -1.64328054345708
O        -4.55417104027870   -6.89078822211770   -2.33279264827048