1500
 energy: -2547.024330041673 gnorm: 0.000592076868 xtb: 6.4.0 (d4b70c2)
H         5.28545728421959   -2.87542593512601    0.64879360283773
O         4.67004376669119   -2.11789733816878    0.55068886879410
H         4.07093943177893   -2.18893379099925    1.32762969124010
H         3.19464966778456    0.53191625106263    0.75304093094952
O         2.27808790870784    0.23776414904393    0.58738415985838
H         2.35932857313731   -0.46303263217362   -0.08379129790174
H         4.25962061993544    0.29128129952587    2.63930018459869
O         3.69938605794693    0.14813281915048    3.43433052519663
H         3.05463113804800    0.88924097882063    3.42631419518567
H         2.13431631628621   -2.16646224128999    2.09806089904474
O         2.97333503532543   -2.24443219994082    2.56325286649520
H         3.15887501263095   -1.38321526265600    2.97759666625875
H         2.71772691936307   -0.31161720270339    6.62272754351306
O         2.33876243607967   -0.53424425705511    5.74612368204490
H         3.00035661882275   -0.34580647832934    5.06917968185942
H         1.31707643509901   -1.72167184121427    5.11660531792980
O         0.71778040434411   -2.19927733992824    4.51985691888021
H         0.66257333348337   -1.63493399120072    3.72527368064446
H         2.92465692033691    2.73670240795474    3.05383901974914
O         2.15598988961861    2.29884210161227    3.47874739132814
H         1.44316116911165    2.33217234267196    2.81503316156484
H         3.46112256166781   -4.35993878387022    1.34850057417043
O         2.95085170035556   -4.30700265645273    0.51496110459579
H         2.26202582374301   -3.62596533121958    0.62746267948473
H         6.75139599924002   -0.91917414951708    2.01583680618924
O         6.44063122358170   -0.81831451572036    2.94194763175906
H         6.63150363591912    0.10865705798193    3.17968053890916
H         1.11013328857168    1.62352794957543    0.86015943750032
O         0.56125786471429    2.29881392464907    1.28927528499374
H        -0.32970792117837    1.92839176044476    1.36897062917086
H         7.30232929052663    2.36479671379163    3.13299576189456
O         6.58502885214081    1.80339523435305    3.47925796842029
H         5.76253556797394    2.11915376725808    3.03890619725915
H         5.01188973777364   -0.44525890560115    0.74627714446924
O         4.84563787325868    0.45708847597307    1.08077070424992
H         5.57885865563344    1.02948073847613    0.80424537114213
H         3.89080731391672   -4.07108022119082   -0.91901958850447
O         4.43685817978246   -3.99187263424134   -1.72695016503269
H         5.05919048661918   -4.73066488443935   -1.67835078445563
H        -0.30287317672375    1.38459926821852    4.47808016150017
O        -0.84589631760524    1.26966914386016    3.67489140369934
H        -0.30830875868218    0.65912628531221    3.13401267694400
H         2.48519495476020    6.24253788383452    3.63499677718378
O         2.74208986830239    5.31869397153165    3.65525633063685
H         2.59062798069587    4.97475934541493    2.73903312579271
H        -0.18523138189503   -0.92191362862372    1.89912120488370
O         0.55022936495521   -0.55199817925377    2.43141626065694
H         1.24398031523917   -0.25480666365219    1.80335685307783
H        -0.80671305930528    0.00950272563266   -1.14560978399498
O        -0.03257444760016    0.22496211382134   -0.58328958424832
H         0.17987365754476   -0.58086080834245   -0.11102147254061
H         2.48252069911942    5.01966600997482    0.56823867648841
O         2.36414152810811    4.38747988689823    1.28899683701504
H         1.58485673303281    3.84349945292453    1.12465667340973
H         1.34328669336567    4.59349537904048   -1.08688026355424
O         1.54151994728030    3.67950302562196   -1.36533826862444
H         0.66814533605140    3.23902163681887   -1.36292479008762
H         4.18071103603947    2.67366805149114    1.43694261676961
O         4.43730507966856    2.88427950069151    2.35806692224877
H         4.91136851945836    3.73801158239363    2.29644248741318
H         5.48125317818480   -2.20717651454559    3.44691583374266
O         5.31122669915216   -2.99958409602208    3.97819519356574
H         4.88811333397467   -2.69894773401096    4.79035417748604
H         1.88257324260712   -4.89734134276390   -1.53841027446259
O         1.33976446991418   -4.08658276341441   -1.62635422906538
H         0.97370834931324   -4.09202312605814   -2.52650622670940
H         0.14979492209519   -4.69158076000915   -0.52804834072879
O        -0.49863259633624   -5.14577371759724    0.04729760561656
H        -0.38643364350700   -6.09318183152380   -0.17094682074818
H         0.46396998873322   -2.66660560660518   -0.10624196909133
O         0.88978898989689   -2.59867490444261    0.76625856001920
H         0.25886659118753   -2.99528261162058    1.39125101733938
H        -1.86880913908671   -0.35961771291864    1.03075126194369
O        -1.60899286932256   -1.30551547097437    1.04780666080372
H        -2.24767629025206   -1.76745827936159    1.60733566017872
H        -3.78574914840426    0.56919492575699    3.66859796680492
O        -3.09066385009665   -0.11442180913040    3.79450959445538
H        -2.22158517592666    0.34862374768185    3.80480271430880
H        -0.75165239141712   -7.90216903444291    1.86938713652169
O        -0.64968978098641   -7.08324230611812    2.39063091516636
H         0.20445339477141   -6.70357921423141    2.09190017660718
H        -1.78067214644673   -3.54454883145406    2.35832061719160
O        -0.89423707746523   -3.93368748371626    2.30926267613868
H        -0.88588185895441   -4.53508420202291    1.53258806377946
H         1.37300111836213   -3.73161952301725    4.08616980451283
O         1.39398990863801   -4.55256425699943    3.55938828130632
H         0.62151327360185   -4.49834520777917    2.98571201893196
H         4.45542665802024    3.34720877374475   -0.41061469146758
O         3.83241118923739    2.60514411892438   -0.25853580402658
H         2.96660042458929    2.91661749746484   -0.56265672726382
H        -0.84313941468345   -5.06047771515090    5.27434200565115
O        -1.55042192392818   -5.25764141439266    4.63100407496473
H        -1.30155047471290   -4.82743155706334    3.79940720636079
H        -0.66336598766404    1.88732078238994   -0.77716454507381
O        -0.91205647893013    2.76249963267197   -1.10820970359329
H        -1.26313590247411    3.26077727039103   -0.34034511990445
H         2.39477922378062    3.45015548096620   -2.72744431142419
O         3.00660085635616    3.48952271676881   -3.49888342205741
H         2.48710050081034    3.39349687076578   -4.30843076962744
H         4.70494551635016    1.00210232802269    5.86337245065194
O         5.22672994127976    0.20321045702575    5.63343582301433
H         5.06465896560755    0.08909539792937    4.68091013687798
H        -1.86329622172235    2.68592131837359    4.75464572350302
O        -2.12483105552099    2.53339868966556    5.66901142132889
H        -1.89243749079122    1.60075990199044    5.86497395503490
H        -3.99926132107785   -3.18235606117163    2.81146944782621
O        -3.20645340263453   -2.60228817776122    2.79242013788956
H        -3.45736635174479   -1.72047435504344    3.12570667470518
H         7.11582695308279   -3.84822109652080    0.89689189788971
O         6.20100118160389   -4.23325760855332    0.90331132396918
H         6.19111004684531   -4.88656474720235    0.18093242465242
H        -4.99273740975019   -0.35886035223834    2.10604041686143
O        -4.70276529918556    0.15294657476187    1.33565721727282
H        -4.29280299524383   -0.50104322306335    0.73519924146640
H         1.73380276551078    4.46610596819774    4.65178265700003
O         1.04290881601784    4.15648062330091    5.28415509305104
H         1.10931190725642    3.19094535225284    5.38053174474200
H        -2.64138268181570    0.81107718110217   -1.67817713743890
O        -2.23867975798127   -0.04434132116563   -1.89842904077963
H        -2.75471018942278   -0.69482313334671   -1.38085502869410
H        -0.19672424942475    4.07103121322001    4.10394906311376
O        -0.81596957549346    4.29737030963800    3.38562643745653
H        -0.41119852098255    5.09803339781521    2.98792455253232
H        -4.30853560523760   -1.66122020385224   -1.38395133397717
O        -3.91437723501080   -1.54697614413829   -0.48364102351354
H        -3.58912954653459   -2.42248684090310   -0.21332400255732
H        -2.33910031397893   -7.18759751509793    7.56979153192995
O        -2.88881749543570   -7.87827022460637    7.14509222157736
H        -2.60764544732487   -7.93511154294883    6.21706046705741
H         2.22910959225413   -2.60392156611380   -1.35261238554718
O         2.70350045324248   -1.75706008117159   -1.24886809386027
H         3.50645257745048   -1.93876772165140   -0.72016552403454
H        -2.58169286247143    1.42762501152715    1.96522506487718
O        -2.10559453291879    1.28533128411479    1.14684034379094
H        -2.71028910742401    1.56286306880113    0.42864377127829
H        -0.91119539244920   -2.45968414086767    4.94799721903778
O        -1.84983921668725   -2.40099741246157    5.20816343747903
H        -2.35704759232649   -2.56494302556886    4.40376915752801
H         2.31077849122871    4.85515754821129    6.61183649216188
O         3.01378947584337    5.46663030863235    6.87707081742446
H         3.34655618286636    5.15582923443572    7.74306742370010
H        -4.76552989520957    2.30093072616859    2.95724570857357
O        -4.89545371460385    1.74231592121567    3.74056814379335
H        -4.83518748985545    2.32632917215598    4.50134926214713
H         4.41502308944874    1.17569565572139   -1.11878000865609
O         4.43937110183535    0.58756717844529   -1.89214639163363
H         3.50989160134861    0.53777102644657   -2.17211080518558
H         0.66820878582388    7.09466782107897    5.52223154020502
O        -0.18385302787222    6.60939580711355    5.50680780172384
H         0.05157964451855    5.67324118025805    5.57470612034233
H        -7.22381715813001    1.18997854421798    3.50210903571863
O        -7.31938018446176    0.43479193544515    4.09938846884995
H        -6.66824627281955   -0.23339608430962    3.78931181109026
H         1.41509285311619    0.72438662053138   -1.51546013180830
O         1.79678696351550    0.69898661106163   -2.40893876208526
H         1.41304890318792   -0.12005875411979   -2.78440157295281
H         0.67551068331332    2.55885882390761   -4.49873627218704
O         0.22845412468140    2.37519297616870   -3.66311461188181
H         0.83182084410472    1.78640215339780   -3.16009264547139
H         4.28830680656647    4.92583089007659    4.33884073164239
O         4.92388216096009    4.87241692468986    5.07536634878792
H         4.39370325374416    5.15701923021866    5.84360629830072
H        -6.07971152567424   -0.26234614452655   -1.43918613140358
O        -5.92882199953644    0.61038167971145   -1.02178672304042
H        -5.63721327702196    0.41195778193053   -0.11036523324356
H        -5.11256892636509    3.75063071350206    1.32038720321370
O        -4.33921830252437    3.34798344423873    1.72562098148222
H        -3.52752842841719    3.60903637537029    1.24144817550323
H         3.12180307011894   -4.78698403608648    3.27445139791541
O         3.97579929465920   -4.98835175623470    2.85195364900710
H         4.56147438000321   -4.28240772364746    3.19005984146851
H        -3.82591774506772    4.21852490426859    3.14828799930009
O        -3.38815969267266    4.50792795488518    3.96592378330184
H        -2.42678515249611    4.50791150312600    3.78358842614396
H         4.80314615590964   -1.24816355509414    6.35467310033108
O         4.50455216934013   -2.16159857549599    6.54670022041366
H         5.28337357180062   -2.66709073062942    6.86220003651805
H         0.25112755808266    1.32625755674897    6.68635124079388
O         0.68538301035337    1.52512747490390    5.84944904453437
H         1.31820870812319    0.79046981896117    5.70709751410005
H        -7.52558912273255    0.92970070881850    1.51760154316787
O        -6.93425711946447    1.69494804980533    1.61899910060887
H        -6.03217957763041    1.34440702845239    1.64361489415865
H         9.40497316149212    0.86885650554379   -0.15617212861273
O         9.39428425071146    0.66413264861271   -1.11122678722896
H         8.46878058854554    0.75062321956834   -1.45044682989022
H        -1.81960198306382   -0.81285484384783    5.81717505202803
O        -1.47619944418325   -0.02146152731659    6.28686587587077
H        -2.03361791217853    0.11286154379706    7.07436264085483
H         6.73808915530071    2.94674723020118   -2.54479258009379
O         7.29830979382474    3.40738901232536   -1.89907210049764
H         7.96554894108335    3.92338590872062   -2.37206896984076
H        -1.85317981670145    2.05518583087472   -3.83564913485154
O        -2.43707107429826    2.56471644826005   -3.24174188092177
H        -1.92175813332504    2.65662682445094   -2.41068736814741
H        10.20713446194086    1.78984015329895    1.77595157401960
O         9.37294701174243    1.38258828751828    1.48175013480625
H         9.16012226279828    0.75615936119129    2.19943519221048
H        -3.83226699256402    2.97908401278919   -0.86493667044112
O        -3.64919363747866    2.02045850108402   -0.90386125160122
H        -4.50176249531834    1.57086254102547   -1.02259446176079
H         0.04725845961814   -1.71825383287232   -2.42100082642337
O         0.42622504140415   -1.39881384368909   -3.25809919112157
H         0.68657356109628   -2.20103543263865   -3.73441699876506
H         1.98022723132839   -5.65285523666856    0.97049479285648
O         1.67119394284659   -6.41461901874353    1.49716645965601
H         2.25944276776759   -6.46909410146165    2.25135490574501
H        -2.11802325263212   -4.44189915484650   -0.07301684591325
O        -2.94354904321269   -3.93191040515168   -0.16605515132033
H        -3.64284801344655   -4.46303843002213    0.26472563441392
H         5.29403125228686   -6.64008284227944   -0.16665834401120
O         5.81734503951744   -6.23012567093972   -0.88388393859673
H         6.59364024052225   -6.78961054619255   -0.98927742859889
H        -1.38920703356394    3.79580710294728    1.75323835676497
O        -1.90680809887222    4.03988021772480    0.96835085409734
H        -1.96984988921555    5.01942208485569    1.01355949412979
H        -5.23219503136335    1.26781640983103   -3.56731760602779
O        -4.38724336217705    0.86503730930366   -3.82732950191014
H        -3.69404331686717    1.41627296158771   -3.41043166381660
H        -4.97203525547623    0.03662807341997    6.22491566343222
O        -4.21162604864191   -0.58285210661487    6.13763516041580
H        -3.75219391803650   -0.38816449905007    5.29129536989933
H        -5.28250635082017    4.30024529135908   -0.67560865114999
O        -4.37485062605793    4.60117265125697   -0.86825838618170
H        -4.35175146691089    4.75195977101405   -1.83425770972111
H         4.50427906281682    2.86806624833214   -3.44177391311209
O         5.35331665906925    2.38588919552363   -3.52627462477797
H         5.25078398761427    1.63941469244649   -2.86833905243414
H        -3.45287264730879   -6.13762168607432    2.44134715213163
O        -2.84997795718035   -5.87796426450115    1.72901588699999
H        -1.99092858096482   -6.27505806178600    1.97774247047878
H         0.38936009798339    7.26347741858037    2.31148569454461
O         0.45085840230619    6.30678807619837    2.27036532094274
H         0.53711234185903    6.07658606561406    1.32408815241896
H        -1.42074576213042   -1.98608954067689   -3.78437539982069
O        -2.11501924949820   -2.59026144070863   -4.08153317840346
H        -2.40979819605976   -2.22856318936239   -4.94187953063794
H         5.80850487581412    4.77577226873931    0.43164086930731
O         5.46008580926801    4.65604314359351   -0.47283323420320
H         6.20714412484288    4.40013311909734   -1.04803861207621
H        -5.65395100504472   -2.07190373237374    3.95003623286350
O        -5.73552537482298   -1.45737280617481    3.19308478808347
H        -6.09424450973231   -1.97711727733451    2.44734382110625
H        -1.13248445615321   -3.39744986468471   -1.68146471262578
O        -0.85061493784039   -2.55344989287600   -1.28623146737538
H        -1.46959844844956   -2.30387681064751   -0.58696773976658
H        -2.59276553545675    5.16368237389723   -0.98796845228062
O        -1.93686792133209    5.76866535125950   -1.35026688387451
H        -1.56798195096294    5.36115487783001   -2.16380431416410
H         0.16478552290411    3.81531699221360    7.32178656473105
O        -0.76625604612545    4.10812132468742    7.35809206719483
H        -1.24652268846196    3.61908004086103    6.66317808759024
H        -2.25936966789398   -4.62824893392468   -2.94397557028273
O        -1.50195615265348   -5.01256673580252   -2.48403948699105
H        -1.87302640968661   -5.64095717051570   -1.84214239687311
H        -2.13956290703054   -5.27314827905409    8.79233282728060
O        -1.55260561542891   -5.90190507631231    8.34463013055217
H        -0.82713450863861   -6.12607076768966    8.96948656629730
H        -4.68494072329255   -3.50981026821741    5.58563463907592
O        -5.35119723416246   -2.81133536489472    5.43385749309175
H        -4.89072117042692   -1.97968817457770    5.71027654302112
H        -3.17958313893940   -4.19617384948711    7.20030499498141
O        -3.47436377833280   -4.42176152625878    6.30244089308694
H        -2.68971326826552   -4.55978606012119    5.73617037780019
H        -3.58460488672062   -2.09329932076274   -3.34159348605329
O        -4.38450948466164   -1.65627833931528   -2.98931039960731
H        -4.35380456405184   -0.73505946829788   -3.30226264736506
H         1.56664802802907   -8.77699762009926    1.89180886963662
O         1.37448422239972   -9.07794500810232    2.78934063122871
H         1.33689460513897   -8.28478144632061    3.35954903125411
H         3.53014745942177    5.01097469620661   -3.28602543915660
O         3.81276204556581    5.94681693734226   -3.20454017849368
H         4.76307980997851    5.94783330478243   -2.93557348182411
H         1.61069935078527   -6.04950368929929    4.18853213768380
O         1.72649680924155   -6.98865303015594    4.44630168264020
H         1.18062038498622   -7.09053215651821    5.26834736041435
H        -0.44562024540646    3.80906838722256   -3.30739550092078
O        -0.73166910150094    4.74399921050981   -3.43780180713676
H         0.06090380166008    5.16142472610782   -3.80240264726234
H        -8.72326583168553   -2.17413792748416    3.72640701877372
O        -9.23133529525920   -1.45055248554677    4.12882098986939
H        -8.66126823334242   -0.65755381578298    4.08084728144139
H        -0.65317821697777  -10.02923672763553    1.29859802574328
O        -1.16052611888295   -9.27790815859533    0.92869027221943
H        -2.01564843671136   -9.30259169994146    1.42530179216265
H        -4.45157754467433   -7.13961832289220    7.07703507099126
O        -5.07422319671034   -6.41401139471128    6.87214299695893
H        -4.48994968781571   -5.69332620752235    6.53815826452952
H         1.75706461961604    5.26916889503706   -5.81492666356562
O         1.40202346425977    5.36707563764405   -4.91465162525069
H         1.78136355174322    6.17985890820295   -4.51676845092794
H        -0.38028724997081    5.92924963579288   -0.67873584623543
O         0.54895635717634    5.93744686227483   -0.38262711123266
H         0.92898606284536    6.80621874105203   -0.61647774009119
H        -4.01472466233606   -1.19105139546776    7.73856008512899
O        -4.28853599009881   -1.60658478335843    8.57649845820590
H        -5.19185773379111   -1.93606902472067    8.38495906778815
H        -4.84933733773658   -3.87653654734666   -2.89095283357483
O        -4.05626414512621   -4.36841156936221   -2.62128739057842
H        -3.81862703500466   -4.13071312434006   -1.70800981180031
H        -4.54913023541290    4.40051816464388   -4.14510003095771
O        -3.94422614546001    4.67874253616625   -3.43647991504847
H        -3.30639239918566    3.93298307630543   -3.36276795784152
H         4.76269232478582   -7.83809351868943    1.58128148927826
O         4.33736229423285   -7.06326676486893    1.15326736655926
H         4.35169688780536   -6.33317574326306    1.79934820104539
H         7.36516586462416    0.07679328666393    0.30083810986487
O         7.43035188831042   -0.87573210481103    0.49128127454698
H         8.37399212732262   -1.10558755347479    0.59207666139994
H         3.41628140658344   -3.47736841458041    5.83111654184407
O         3.22197905120893   -4.36284443528623    5.50376340870203
H         2.79426283038691   -4.83878309725717    6.23692374442943
H        -7.51595895099376   -1.84899944273840    1.14024877120532
O        -6.79436032423534   -2.48531271007502    0.96775767243387
H        -7.19811415318120   -3.37898624610128    0.92834118742866
H        -7.39806063698456   -2.03037532366650    7.48328049073841
O        -6.61817462088053   -2.58302697623452    7.72350987742862
H        -6.23281131054218   -2.78486076847188    6.83611429230272
H        -1.74943746427770    4.44953832005199   -4.78153355145981
O        -2.18380333596307    4.34521595772158   -5.65702098264353
H        -2.68265244089292    3.50320657759540   -5.67674413205366
H        -2.42261809539647    1.48806216450476   -6.32268473238293
O        -3.27682477569266    1.91623887543492   -6.07551081558703
H        -3.62133346946878    1.45187427401319   -5.29020257475023
H         5.60688276557573   -2.54971304760267   -1.56724491033847
O         6.41521174814803   -2.03082388695820   -1.70792282452311
H         6.72683793109093   -1.72812083739859   -0.83330006938607
H         0.75540331047777   -0.44861491450702   -5.64214719395292
O         1.32569299948709    0.25133604357852   -5.29273446866273
H         1.95989990438488   -0.16103063674992   -4.70243242426891
H        -0.64649586538192   -3.77203741483769   -4.19502943796612
O         0.31009955840290   -3.91110998656630   -4.18413701860382
H         0.53229624524224   -4.52354067184017   -4.90940065354104
H         0.61927173736393   -7.13981773764767   -1.64999555861535
O         0.07578663481786   -7.53636822357138   -0.93632569446453
H         0.71165721589118   -7.93276365907953   -0.32766541826078
H         7.30829881187073    0.60159345982109   -3.24464970786887
O         7.08213635709805    0.59527180653412   -2.30259591002605
H         6.67289989054640   -0.26424261979687   -2.12245216055242
H        -3.15204316285524   -6.08501635895588    4.41414185492828
O        -4.03280835329055   -6.32113088792221    4.08698478343553
H        -4.23408645142095   -7.21428668740644    4.42845670975731
H        10.01066879194956    1.92982106403881   -1.84068851502825
O        10.25533397108744    2.83937412745834   -2.15741914941888
H        11.18506503047441    2.96728036474605   -1.91073708986717
H        -5.28719299591959   -4.58680546965225    1.95320831183979
O        -5.27224575118669   -4.27137554660680    2.87714944314696
H        -4.96634072621670   -5.01842952097306    3.42524641842838
H        -7.70293933604962   -5.51735637319558    1.18022478063651
O        -7.93134865918345   -4.82113234191763    0.52689714412701
H        -7.46327587310895   -5.07667195330364   -0.28972724096954
H        -2.14832448469485   -7.69696370411692   -0.48529909544784
O        -2.68081728629694   -6.93189723785246   -0.70843854294636
H        -2.89005036739076   -6.52352836734664    0.15566555317404
H         7.09518627628852    2.35848613863466   -0.48011775420928
O         7.00332498627280    1.85219580812162    0.34172699136084
H         7.82384656572418    1.97682907722553    0.84390688605096
H        -8.23269764335495   -4.31783854888147    7.03547422215919
O        -8.29936804381428   -4.22989585197626    6.08014552371184
H        -9.21149019197844   -4.51793670852748    5.83873495214000
H         1.42187769328739    2.36717508250765    8.12428470854519
O         1.76330268482957    3.21106115134031    7.81880237640007
H         1.80219524636780    3.80193891893554    8.60616987210780
H        -5.45265735392347    3.51050087826534   -6.26102096685332
O        -5.56511203256628    3.80119668936064   -5.33991304206042
H        -5.91000623364617    4.71961474955049   -5.38683040742385
H         3.20123967764125   -1.48728334169652   -2.80828540136476
O         3.45805056292189   -1.40355335517114   -3.75684400397587
H         4.28314466061419   -1.93490845260483   -3.85861857034002
H        -4.93559446070986   -6.15198922843188    0.74079963642452
O        -5.11738221444586   -5.24321278221069    0.41377173052241
H        -5.53984039548640   -5.35101091924666   -0.44987153644591
H        -1.04896380140732    7.18643647875942    4.21434849412327
O        -1.72511121306071    7.63690866333062    3.66402696782294
H        -2.55684913076060    7.52307157745638    4.16373457476323
H        -7.81446726038983   -3.74378694738778    4.43376750393740
O        -7.76066428708328   -3.62110871831383    3.47650308072207
H        -6.84229119252572   -3.87995154520785    3.23738559336314
H         8.54697114008755    2.12434025072245   -4.46028076404770
O         8.91362955277725    3.01805942502783   -4.37954827321312
H         9.48411108758763    3.01355693147289   -3.57837768677076
H        -9.79230967925943   -5.64043012381385    1.90699926262500
O        -9.86687915953882   -5.02865261318609    2.65167480714854
H        -8.98697751124156   -4.62823793510354    2.82302875671689
H        -5.76981253728210    1.90678253170142    6.29734970570544
O        -6.22383183935497    1.05684129227581    6.45130352714283
H        -6.74429194108816    0.85981988672148    5.64233361498890
H         6.22447275385360   -2.32329720900168   -3.61309651226761
O         5.64504079855645   -2.78982398801263   -4.22751484345324
H         5.71618935911652   -3.72769339238174   -3.94745590929928
H        -6.24937976645452    0.90308066710792   -6.52610635533112
O        -6.89999236174199    1.03651212789596   -5.81821372083769
H        -7.63070728774893    0.42688583174631   -6.00033732552539
H         3.42279954898122   -6.58957136750375   -1.99890097828515
O         2.80834605175349   -6.33599309614436   -1.29104685918247
H         3.32367320038764   -6.23369931123413   -0.48844726761329
H         8.41361836202423   -1.38868631561570    6.40883606752327
O         8.62823923750656   -2.33252051262062    6.32101650107015
H         8.46375732433037   -2.53349154257485    5.35831160284398
H         6.41612047898525    2.32239568087724    5.05595436575448
O         6.29876666660415    2.78877896844868    5.91774600548052
H         5.69881625314566    3.53432270395435    5.69264053074601
H        -1.23389376744992   -8.92135146255433    4.55403601493772
O        -1.67602842454736   -8.05079268562649    4.65491357750621
H        -1.30957696676846   -7.49788845612776    3.93733190315703
H        -7.27827489464471   -5.38508897001630    5.34782133752796
O        -6.81471498404605   -6.11949002546866    4.90125651644455
H        -6.12598133525815   -6.40622893140271    5.53147535427064
H         0.78378343196618   -4.92306605380966    6.83448087831201
O        -0.06469866393288   -4.48850623777928    6.68297794730333
H        -0.67563517478175   -4.99312773780099    7.26789792109490
H         1.03023625646517   -7.02836256116067   -3.89315744221931
O         0.94783625729938   -6.37573114897615   -3.17249288059243
H         0.11298014682337   -5.89723868788004   -3.26876998631757
H        -1.25368060304382   -7.55020435317606   -2.31446609176175
O        -1.66731100184091   -7.74064997398917   -3.16703645680317
H        -1.16075830617485   -8.49206309662924   -3.52127221171225
H        -7.96418673854614   -7.41381292679187    2.40364278460871
O        -7.27707817571878   -6.73148306670345    2.28943415772880
H        -7.01046608818999   -6.46488584346926    3.18544639338455
H         5.81282491857504    5.72375083713977    2.58340813478591
O         6.04194638247804    4.92671377969300    2.06607900405299
H         6.90325485104204    4.58807128476609    2.37049017118951
H         0.40195233835193   -8.05965620690210    6.94928173161254
O         0.15446281017555   -7.24674690530561    6.47389969964258
H        -0.61730702684555   -7.46470122096589    5.91887492998464
H         5.33440998940819   -1.53394692975052   -6.81674268139393
O         5.95830670757814   -0.88341395751328   -6.43781100648857
H         5.39308715854740   -0.23827065740435   -5.96086738628634
H        -6.57364588834162    2.67227477420604   -1.26918283269285
O        -6.62414848844650    3.28947998248255   -0.52914772403170
H        -6.83796215650756    2.79014601411451    0.29052021367761
H         9.09949185211699    3.81360314547835    3.22790026648978
O         8.33886953110009    3.69384644715841    2.63068508954230
H         8.70190954204040    3.65789381328842    1.72898291463128
H         3.79625641848253   -9.39215678323412    4.41650052459514
O         3.44008996519407  -10.14509878975645    3.90867729519745
H         2.64654394174900   -9.77943563293834    3.41961765912303
H        -3.68055044496096    3.05377058779664    5.94532445595624
O        -4.63409832862525    3.20369732417092    6.12301310478782