1800
 energy: -3056.699025056916 gnorm: 0.000995664330 xtb: 6.4.0 (d4b70c2)
H         5.29432930666970   -3.04915841655328    0.84028736603942
O         4.59612981780348   -2.37800689835510    0.67932686161527
H         3.98476926601074   -2.44441961449764    1.44958060680340
H         3.11193532877095    0.13145908884603    0.88002580902580
O         2.19870140765363   -0.16696339233265    0.68133599333673
H         2.29746024077246   -0.83925900395049   -0.01760153546539
H         4.18862878774392    0.03673872297084    2.87021657943422
O         3.57355347789446   -0.11629048929861    3.61828439179927
H         2.92719310676979    0.61518306404969    3.57620359638712
H         2.03432545394375   -2.38915509220144    2.19941005878380
O         2.88153223489354   -2.46642956034199    2.64709089108544
H         3.05331833222762   -1.61668983085038    3.09205314625560
H         3.03997652516657   -0.81000112988851    6.65832519185839
O         2.57771040995755   -1.11241601066146    5.85198678005487
H         3.11466195206046   -0.80924596391166    5.10103330105041
H         1.15911716732152   -2.00744025984627    5.25261540138294
O         0.53558875566808   -2.42456272258412    4.64763216752049
H         0.47299628588471   -1.82273814458104    3.88870517793898
H         2.88276936589583    2.48728371468120    3.16309735277152
O         2.05769851152867    2.06524846182444    3.49781741970294
H         1.52109425167504    1.92183487026908    2.68680967800967
H         3.42185186977706   -4.49973514655348    1.38544193152453
O         2.84628389717602   -4.54394160397515    0.59651636298558
H         2.15810022024060   -3.85737210542103    0.69375993340530
H         6.61503360314105   -1.14731059988959    2.21187410899058
O         6.30994854856794   -0.86449820371781    3.09588563546110
H         6.54992956626122    0.07964381368238    3.14903623510583
H         1.25223723076500    1.24629683930300    0.80926883871466
O         0.73804896618492    1.95878887596746    1.23101808386819
H        -0.16989270901672    1.63267856589778    1.34094793811903
H         7.19757389831515    2.33477483476561    2.95904879760808
O         6.57112470434429    1.72138870209560    3.38979627436780
H         5.68084738972418    1.98595609701473    3.05600027321296
H         4.87146884405096   -0.72261701019357    0.93601837731570
O         4.68670438532654    0.18232393729741    1.25673565281405
H         5.39186535581668    0.76217283514491    0.92388064613267
H         3.85054687214188   -4.37150971164248   -0.85000682744781
O         4.40880191369487   -4.34840537699549   -1.65135453257443
H         5.09938862841865   -5.00805253618881   -1.49533276233079
H        -0.20063083555876    1.24870079887847    4.78178949164912
O        -0.77453246227205    1.15236091783668    4.00111973304321
H        -0.27683759419570    0.52686390021383    3.43938867653539
H         2.72965456736345    5.77166918302076    3.94349068165614
O         2.99528232869964    4.84863120859596    3.83014979699358
H         2.81078865592811    4.63324573825520    2.89019563179527
H        -0.31453052883201   -1.07110369516939    2.05114050248217
O         0.43327986852253   -0.71912270135731    2.57434356864997
H         1.15063414683612   -0.52243929274977    1.93559208668437
H        -0.95170299285491   -0.27290052213159   -0.99884922874676
O        -0.07052619592173   -0.06051672158287   -0.62211707397292
H         0.15367700648294   -0.79193853206798   -0.04420350396578
H         2.43238560596064    4.88957114398226    0.71828678206314
O         2.40427363132495    4.18872422655025    1.37573965785766
H         1.68382691953496    3.58151722568257    1.16858912008582
H         1.30020670855460    4.36668200837858   -0.95150698699787
O         1.46930574627179    3.45484152827398   -1.25970742291981
H         0.59670684853027    3.01214103159058   -1.22401266328150
H         4.08254614929802    2.42187520308862    1.53193350565370
O         4.34593933831369    2.67146727420168    2.44151791307704
H         4.70693035101162    3.57918668773276    2.37178551163679
H         5.35548618394339   -2.18462398601308    3.68337686579999
O         5.34309659321038   -3.02483269796466    4.16925261410063
H         4.97377917489692   -2.85175022491805    5.05204768358675
H         1.91029095747880   -5.18657806977555   -1.41005966426928
O         1.33260004799579   -4.41546363226639   -1.53914653864917
H         0.95736275022106   -4.48504730264862   -2.43233941888106
H         0.23428146267590   -4.93264187441216   -0.37231677564232
O        -0.39480149442902   -5.29988954957270    0.28479474551723
H        -0.36112883266496   -6.26277759771131    0.18482131844840
H         0.35592427224675   -2.80907307678394   -0.04688358250483
O         0.81432985645494   -2.77283667876570    0.81236263460626
H         0.20077163652512   -3.14772705976370    1.46427101002860
H        -1.92128262438492   -0.51804916368623    1.19467846404138
O        -1.68742363477772   -1.46350076204559    1.10821420412469
H        -2.31943865983015   -1.96314042964110    1.64257183531875
H        -3.68682521067625    0.40958088599944    3.75685255729728
O        -3.00700278259876   -0.26368744275279    3.98293722437581
H        -2.14725178449052    0.20380352045025    4.06093208221417
H        -0.81589668617018   -8.10488123804526    2.03548761517926
O        -0.70071365204828   -7.24781211957982    2.49259410467650
H         0.17524669671912   -6.90570964403338    2.23248432970417
H        -1.74056968510174   -3.63119686677380    2.58682989077994
O        -0.86716422792556   -4.05771537251788    2.57185725021015
H        -0.83157952925348   -4.68877688546012    1.83027063136695
H         1.85113619166977   -4.25897546233349    4.35360442158636
O         1.48728884289027   -4.78044197322767    3.60585353304697
H         0.65839800912797   -4.34960350889774    3.36230559731668
H         4.32540780362715    2.98715909412304   -0.31639882187793
O         3.67664275676700    2.27405032414975   -0.14097956699992
H         2.82471677263765    2.60321670130064   -0.46559057677078
H        -0.83698519336223   -5.44792730293483    5.33731905015213
O        -1.55962704830812   -5.62704340466130    4.70622850980772
H        -1.34002807763201   -5.10626646803761    3.91895669427617
H        -0.66106882093215    1.57621648594975   -0.69883189789031
O        -0.93467842286784    2.46383096295850   -0.98038152303029
H        -1.11474322661211    2.98118500605768   -0.16589420165369
H         2.38190709668212    3.20502109520946   -2.56460176726567
O         2.98642046270189    3.24796371382425   -3.33743570874673
H         2.47642170065329    2.98731291552847   -4.11909917359693
H         4.95112736628782    0.65292349762805    5.71829572503766
O         5.58192620964763   -0.10268923061057    5.71175179508121
H         5.71642417991677   -0.33659586498426    4.78433416595108
H        -1.90310789588039    2.86797028894610    5.81600362333471
O        -1.83008533363876    2.24237698155373    6.56375291018028
H        -1.57262128248040    1.37361280169246    6.22421177672855
H        -3.99481243858025   -3.27471949096757    3.02382201895692
O        -3.16544446461653   -2.75603019659157    2.94398028723626
H        -3.32523273512264   -1.86077521575398    3.30511853042131
H         7.25680185260855   -3.95810346516746    1.13965124405533
O         6.32521063043994   -4.27323960651804    1.13602357612253
H         6.29421783612161   -4.96622262074127    0.44936801746108
H        -4.89866878658912   -0.37069305317582    2.29587919087019
O        -4.68673152548020    0.01763214655873    1.43959784300369
H        -4.45249484656429   -0.73620539473484    0.87256026180174
H         2.03608296276984    4.07987386513911    5.02291821290736
O         1.47667689485172    3.86095994138055    5.79659428431488
H         1.36089499374272    2.89720330020123    5.81966511347380
H        -2.84770364321554    0.64757116319976   -1.09375963253462
O        -2.52067853215340   -0.20243713912100   -1.42733317909109
H        -3.05578431932335   -0.87788050517252   -0.96348812307374
H         0.75001164525559    3.32351554943950    3.60785303928068
O         0.05684329160361    3.96753487328296    3.39848489478426
H         0.47721063506959    4.82419118443879    3.17614845225917
H        -4.38965032083732   -2.09619137884260   -1.20953806867101
O        -4.13504298320859   -1.92315200537356   -0.27980306426922
H        -3.72507434028550   -2.72770608331933    0.07114510205831
H        -2.48152781628477   -7.26077962644752    7.30516870392143
O        -3.04423887558278   -7.96605190812598    6.92980716695276
H        -2.74368841131398   -8.12022103386897    6.02042321988784
H         2.19550129297433   -2.89077200345113   -1.27201815763154
O         2.69975986156202   -2.06625670772164   -1.16144849350092
H         3.47884514531789   -2.25388893333528   -0.59946998288314
H        -1.97921752166515    1.44525981369667    2.38699079451384
O        -1.88758628135259    1.14322274117526    1.48026908947204
H        -2.66099372762595    1.44999518699597    0.96833821016532
H        -0.99585280264210   -2.83953534751752    5.21463293501089
O        -1.94216130895175   -2.77675702528076    5.45100021799751
H        -2.41767985481776   -2.88305803195238    4.61996300194403
H         2.51348502199404    4.87370036158331    6.74579515991334
O         3.12884861514971    5.58014160434114    7.02642753354466
H         2.76925494666873    5.94169031227907    7.86063711957777
H        -4.42734076648073    2.31657454099032    3.10701597322114
O        -4.79794771390713    1.63378072913793    3.69322788977846
H        -4.73653728901906    1.99718451120871    4.59352571679022
H         4.32301909150987    0.87834382406852   -0.96379432927960
O         4.41938981689540    0.26368126134849   -1.71079717657466
H         3.51817352452973    0.18494288740482   -2.06057507001447
H         0.84374319913957    6.56466782306435    5.53906989691922
O         0.00089560222357    6.11980066890758    5.77534554556821
H         0.24489075572747    5.18351862437460    5.86168748092932
H        -6.68928207480706    1.15932357766286    3.65881941756105
O        -7.14926733879466    0.37872999814183    3.99430719267717
H        -6.53244263156289   -0.37545706578273    3.84678558058598
H         1.28567286216866    0.27578094877218   -1.58955852293768
O         1.78844246978317    0.36220182212339   -2.42249286290493
H         1.68364953886106   -0.50589902339667   -2.84481028330546
H         0.41226088595939    1.94963118731745   -4.48161920180311
O        -0.08525525491774    1.62469378755740   -3.71385205813335
H         0.60932607135490    1.19087033691463   -3.15923097915252
H         4.45946558254140    4.71203465681233    4.68185149202493
O         5.13389444467493    4.77735321369137    5.39044989217631
H         4.64090009916411    5.10009478762069    6.16060276150876
H        -6.09027632625187   -0.57239279885907   -1.41973776253040
O        -5.92896005067784    0.32555716247611   -1.07325085961819
H        -5.74086057386889    0.19230191107080   -0.13463771994912
H        -3.94919225216236    4.39768947541455    2.39368333871987
O        -3.52375290579717    3.51676991451104    2.43142469753644
H        -2.74198839743302    3.57691376705573    1.83644692901181
H         3.17297912537382   -4.87178531925708    3.22977549355889
O         4.07437589935391   -4.98145146259704    2.88484022911213
H         4.58814300762379   -4.25061691099804    3.28164959041744
H        -2.75812826194998    3.74843884481874    3.88855257309395
O        -2.22527126001346    4.04104271266054    4.66150353726287
H        -1.31184358515009    4.09347910881532    4.30890925816906
H         5.18639160475586   -1.50387233688617    6.63916561409448
O         4.79900223921112   -2.37985760774774    6.81744683794298
H         5.47842949368106   -2.98131161020829    7.15864475818499
H         0.78916409734991    0.97579661109929    6.92589351047143
O         1.03613003600574    1.17379708640231    6.00737145922237
H         1.56016179865999    0.39793665049823    5.75053797271998
H        -7.35023900027938    1.14955503935194    1.26210174214072
O        -6.69325390023637    1.86482193987867    1.38017396333157
H        -5.85509519501096    1.42041151858140    1.58588728130901
H         9.14967642674479    0.57402736400915   -0.01649660004995
O         9.27770510528142    0.35226736809165   -0.95580330498499
H         8.39833693058064    0.24318915559732   -1.40350881621959
H        -1.59656918206517   -1.19442749912428    6.01110050913266
O        -1.12943926788739   -0.45622118408957    6.45070935921499
H        -1.65122205073759   -0.23605983208563    7.24374987086336
H         6.68254043526775    2.56204867141224   -2.46246157912944
O         7.21232112571955    3.00347443109054   -1.77591267594980
H         7.86387072591496    3.59252571036648   -2.19134084780862
H        -1.95987294130116    1.84873533573866   -3.55208692469287
O        -2.63659731402472    2.13579235213932   -2.92743151410965
H        -2.14381322750123    2.25302329009666   -2.08418746433210
H         9.78582527943735    1.81103808265557    1.83346597234048
O         9.03915710280803    1.21937606211961    1.63595522899303
H         8.90024782720762    0.66694672679237    2.42279425884913
H        -3.78686881084420    2.92072650528907   -0.14722195852364
O        -3.64513978524313    1.96521045550849   -0.31808107944932
H        -4.50228228227939    1.62712952537636   -0.60300074498524
H         0.13433593792796   -2.02078184566212   -2.60532296749548
O         0.76871483156551   -1.94883909631210   -3.33364101691703
H         0.79969267287796   -2.83129310210964   -3.72700447606124
H         2.00148790498485   -5.87920970104489    1.13220887715643
O         1.67900470671271   -6.73333637061257    1.49405130155737
H         2.22182601110708   -6.93221471669771    2.25861691375132
H        -1.86660866820762   -4.52235818200073    0.16137756759136
O        -2.73477436162444   -4.08271480122803    0.26475579568880
H        -3.23616922572503   -4.64552535092770    0.87867354890021
H         5.38699722191266   -6.65856753119556    0.15218448644081
O         5.99839601328514   -6.30775041168651   -0.52729545559953
H         6.68849397492302   -6.99155663261427   -0.59976618108119
H        -0.69745038374574    3.73767183682600    1.94118871587792
O        -1.29396840154259    3.90993977834562    1.17947061969245
H        -1.41602890378807    4.88256296864060    1.19055507720221
H        -5.29509141495087    0.74904341747789   -3.33049100530552
O        -4.44975157708610    0.34089257673437   -3.57855261941124
H        -3.76128239176146    0.87201056629726   -3.13516896411377
H        -4.73863666089821   -0.18834903953493    6.50042254488144
O        -3.88560196564565   -0.65187653388567    6.42834200247427
H        -3.51945076482624   -0.44687321193028    5.54210480101278
H        -4.94587718081709    4.59751100124051    0.45693913136179
O        -4.13325301694574    4.55274327386817   -0.06954045482842
H        -4.39392155414255    4.57305911688559   -1.00586835744973
H         4.46313023040195    2.54514208269423   -3.28922127683809
O         5.28826227115708    2.02730289358845   -3.39783434766952
H         5.18912602850028    1.27756217659358   -2.74497934945145
H        -3.59210995620954   -6.36511793243165    2.66750150921084
O        -3.00296866444159   -6.14258094926791    1.92686074521827
H        -2.12163499464514   -6.47779110788004    2.18453326137111
H         0.74970083622962    7.15030069072253    2.62783847832835
O         0.93505160157844    6.22949231654768    2.45213138594771
H         0.84334011973746    6.08161763846173    1.49345334711326
H        -1.64070535259787   -2.54572162687260   -4.27139061075624
O        -2.12996436397064   -3.36957480410747   -4.11060818647980
H        -2.68048149776899   -3.53463158022467   -4.89637961300495
H         5.67550103530628    4.46937671010049    0.50127257139947
O         5.36943457157519    4.25503520736457   -0.39788716252819
H         6.13467655533012    3.93346609747191   -0.92014365515510
H        -5.43034249165495   -2.20232788493805    4.23085550333379
O        -5.54430132227025   -1.56186077778584    3.50740483059129
H        -5.90306992412466   -2.03655072002913    2.72819330875423
H        -1.10863776650590   -3.56691260453961   -1.62762529242265
O        -0.87634378303482   -2.68146613924377   -1.30271033699045
H        -1.51533808792731   -2.42938552917266   -0.62396655408804
H        -2.38570527976379    4.84282701346722   -0.67394243552051
O        -1.76063033384331    5.38908443217130   -1.16354138209001
H        -1.47200100282284    4.89560999168154   -1.95702180324228
H         1.01400074875103    3.01059202754050    8.00708533579489
O         0.06676403612848    3.18538298733506    8.15948706432394
H        -0.48754652016824    2.81440918054291    7.44161696904921
H        -2.15303052687473   -4.88324573117497   -2.76957735082031
O        -1.51650133611960   -5.24316091624874   -2.14145149784825
H        -2.00393659737231   -5.84161819643374   -1.54438073500004
H        -1.71981321037038   -6.36273971993244    9.11920069424469
O        -1.29485656464974   -6.52606170318791    8.26077479044589
H        -0.46933647080158   -7.00098464014732    8.44702284164698
H        -4.37434352345474   -3.78487369161337    5.96523104920573
O        -4.86127087233334   -2.97760935140778    5.69505372480553
H        -4.24961801893451   -2.23970408160840    5.89871294187466
H        -2.79779323690107   -4.59201970065048    7.36115964785171
O        -3.30479854955792   -4.92654769108186    6.59684055544330
H        -2.64971414916475   -5.05166289102528    5.88401764487873
H        -3.38978941151972   -2.47531291227708   -3.29439047872760
O        -4.21209029544365   -2.16749884800461   -2.87682908062356
H        -4.36363160838360   -1.25755183472500   -3.20423384856888
H         1.58634700005249   -9.44517527761309    2.09131561434832
O         1.24213364917469   -9.55333411654387    2.99497275373556
H         1.19382121160358   -8.66423563305134    3.39004185562989
H         3.41205185419636    4.81479740761073   -3.15890301398959
O         3.64430187401985    5.76430892306302   -3.05509412048014
H         4.61719081069364    5.80701400075221   -2.85161430149912
H         1.54792747198802   -6.29519250911532    4.06098013606451
O         1.68356699379540   -7.24246186203615    4.30230215060785
H         1.09199585376683   -7.38431048212180    5.08409086885188
H        -0.55220508290890    3.23641777558265   -3.14051978010478
O        -0.79888845784203    4.16346844439464   -3.30762701917825
H        -0.03735242968960    4.52233029754095   -3.78886853182340
H        -8.84364572259653   -1.92588045762875    3.28217196718609
O        -9.23015384711710   -1.04168310814121    3.17176791983207
H        -8.56389150583977   -0.43412765668459    3.55533556991614
H        -1.14764827875086  -10.42676172029299    1.70848981861034
O        -1.49325819530855   -9.54833354643769    1.46050488183240
H        -2.36664662255979   -9.48650234680815    1.91356747037823
H        -5.28464236452679   -7.32915262455987    7.48667106258258
O        -5.37217353562081   -6.37623106808341    7.31381568614822
H        -4.49989880938056   -6.06124301182915    7.00100731072576
H         1.61271848606947    4.73027394650845   -5.77208374952195
O         1.23522037517229    4.83147976541165   -4.87995157333747
H         1.52300655396964    5.70080643038667   -4.52233674978192
H        -0.21292843068493    5.74336748241045   -0.54084389937148
O         0.71808274309904    5.79413458973212   -0.24774157224179
H         1.10376393132538    6.63210096841343   -0.57199889434510
H        -3.62965214250214   -1.56229864068030    7.98881776413460
O        -4.00780737877614   -2.11147937999607    8.69648707640020
H        -4.97068921599183   -2.06070748664448    8.51412484288315
H        -4.41453066966660   -3.83161796108671   -2.37635717500986
O        -4.10507853640377   -4.65563614191668   -1.98199862987156
H        -3.68569866012142   -4.45389602494934   -1.12407026530914
H        -4.73690193333030    4.19057317821337   -3.45732522683473
O        -4.11171998264060    4.34074160990535   -2.72720418980641
H        -3.56131111394429    3.53425664131508   -2.72906633169780
H         4.87750458968608   -7.83416147968442    1.93319886361798
O         4.42285123538937   -7.13063336152783    1.41976773099790
H         4.39403581020023   -6.34049899060814    1.99977527342967
H         7.10752283318839   -0.27489646211063    0.37728156421739
O         7.20938331319840   -1.21365999950605    0.61818360050576
H         8.16366489269014   -1.38218806292299    0.73468611828996
H         2.94434739971324   -2.96600508445780    5.71242450312490
O         3.02943796849773   -3.90270355840592    5.48575427168495
H         2.83516354289256   -4.42477211383309    6.29233442021230
H        -7.16581811541117   -1.60749098572758    1.12258029491233
O        -6.55409882652978   -2.36658149641535    1.18249465797243
H        -7.08614989552676   -3.18224654551394    1.25099095661906
H        -6.67653068041733   -1.06726026485709    7.34272308790445
O        -6.39191146399851   -1.96221907429596    7.58137790876093
H        -5.85146862478154   -2.30282862359563    6.82758683413165
H        -2.11799149424426    3.88082244278409   -4.52284236752055
O        -2.52093105461302    3.78264578411451   -5.40406308756384
H        -3.02410874273491    2.94271526989715   -5.46052752732970
H        -2.69336927262820    0.93227726583525   -6.06165564356602
O        -3.55880489328554    1.34665954049437   -5.87253551790438
H        -3.92733046137299    0.88799056891261   -5.09042630889543
H         5.45306854203391   -2.87249721384060   -1.65792266300520
O         6.23973257643200   -2.30217627221492   -1.64541122935219
H         6.34198891886054   -1.94736491400061   -0.74359310493616
H         0.34133945734245   -0.20176426109737   -5.92780391117017
O         1.22063633663556   -0.32263135334660   -5.52861792650141
H         1.08929182787064   -0.91880340220105   -4.77924798970087
H        -0.61926976863168   -4.36540273882135   -4.19274327192889
O         0.32780163204350   -4.55817873807887   -4.10282192018396
H         0.58731793517624   -5.16353767619908   -4.80790238276456
H         0.22309984186356   -7.67791258838469   -1.14198365206834
O        -0.04068221648624   -7.97774411170841   -0.24218599000418
H         0.73869039810132   -7.85436769058551    0.31707659980592
H         7.44203066977392    0.17700047241348   -3.26256567660253
O         7.11234617581523    0.17048915982049   -2.34819651931867
H         6.61704959801405   -0.65190231183406   -2.21669107953361
H        -3.34071077725763   -6.37298165072401    4.60203299019883
O        -4.22359957522069   -6.54840390910834    4.25018887181316
H        -4.47356698517193   -7.43676406633329    4.56478701005281
H         9.79555195602699    1.68686240378314   -1.59703869104073
O        10.17274213362225    2.54108282178183   -1.94354564706065
H        11.13738834697781    2.43451952153114   -1.85038895838723
H        -5.35607882140384   -4.56510607400903    2.21604868935323
O        -5.35814625769972   -4.28475856143674    3.15242456035310
H        -5.11698218013514   -5.05673275268607    3.68898715329176
H        -7.63900963971334   -5.30512999006645    1.61268031287687
O        -7.90602247897520   -4.62522500971153    0.95711046177400
H        -7.51665294016005   -4.89559409315900    0.11304219860409
H        -1.83215860765609   -7.63881941054647   -0.26097491410114
O        -2.62320866806318   -7.13437104657312   -0.50397819470213
H        -2.99297956347369   -6.81620522490007    0.34257287805688
H         6.93637482060216    1.94516645008016   -0.47484739823240
O         6.77549453138827    1.48845398866978    0.36522735774281
H         7.55948474500030    1.63565579058989    0.92193013151017
H        -7.45816678924284   -3.00713539784222    6.86137471680867
O        -8.04994829211586   -3.56329281140535    6.31712918135084
H        -8.92599407277956   -3.43110766573626    6.71326007184157
H         2.95842314922401    2.25489710894410    8.89279673862964
O         2.73635553905018    2.80548378288835    8.12379065790381
H         3.27554478308851    3.60052118253752    8.25706857480140
H        -5.48978490504239    3.22788819247649   -5.66566635038796
O        -5.54858654489245    3.74429861620757   -4.83305947997415
H        -5.94620968090386    4.60667303481108   -5.08478722048669
H         3.29608508557136   -1.85732734737732   -2.69629144567996
O         3.60005155606119   -1.79553039773899   -3.62720495608047
H         4.40060279063933   -2.34442732026034   -3.69389733567737
H        -5.05098047132449   -6.05984793410785    0.87843318768190
O        -5.15588020554249   -5.11849322709416    0.65406064541545
H        -5.55595129752221   -5.08181889142411   -0.22230789092950
H        -0.68448366195373    6.97453914020714    4.49932496580137
O        -1.20142262843614    7.55322446259251    3.90262232417539
H        -2.10108929594527    7.51231794295440    4.28719984684535
H        -7.98187933397530   -3.34059575216691    4.63563780751105
O        -7.87536753735400   -3.37220253919823    3.66342031280188
H        -6.97749384123530   -3.72730200110838    3.50594408854109
H         8.73826563777341    1.84396902317482   -4.40032907573574
O         8.99054488732192    2.76963578967610   -4.22236866255685
H         9.40129074503505    2.76711238067834   -3.31915063394990
H        -9.76483006292930   -5.42289340491473    2.16160480298569
O        -9.81776186396970   -5.04711924752862    3.05950773227347
H        -9.03336277594880   -4.46574736839623    3.20032502971460
H        -5.73149817676683    1.40225127170211    6.42982822331948
O        -6.28247934249292    0.59990289267266    6.52029330237496
H        -6.76719053001641    0.49279410245749    5.67627057313586
H         6.22778955897801   -2.77388326408637   -4.54096360204432
O         5.62365713515734   -3.44960269174130   -4.21645594693188
H         6.12759665443874   -4.11553129707265   -3.70858258194727
H        -6.22257353097067    1.06098460763011   -6.14793482460731
O        -6.64189594190147    0.39548198022526   -5.58238321896551
H        -7.42436853577749    0.07503163836992   -6.06991419765522
H         3.73510943676887   -6.84097450477807   -1.77643746132770
O         2.97544565456039   -6.66889504548741   -1.18700797027120
H         3.31042528299173   -6.65200737126119   -0.28643842253977
H         8.26043869082097   -1.70942843625149    6.84324430754316
O         8.25578811943957   -2.66646706284825    6.68760755145550
H         8.21715319233600   -2.76818296816851    5.70321534090262
H         6.60934936901553    2.20240594591038    4.93180437609700
O         6.63160869193811    2.66032660022627    5.80786232000418
H         6.01817929289383    3.42033865543623    5.71049070061710
H        -1.52445506338071   -9.33637705505663    4.42057877943134
O        -1.85849418443386   -8.43207412724814    4.56733149025320
H        -1.47158917533215   -7.86581100493525    3.87425295135585
H        -7.30213837009650   -4.95556610504295    5.63554229403198
O        -6.87944398590212   -5.75026053704524    5.26715189758355
H        -6.24769857766946   -6.03289291597003    5.96575571266498
H         0.93455319889194   -5.14771839324557    6.87195365068557
O         0.04609295990650   -4.81854325658430    6.67765437808983
H        -0.53692300894601   -5.33529747978271    7.26470633845071
H         0.48355130837603   -7.46420647537555   -3.32027153660470
O         0.57386764027456   -6.86729335405973   -2.55417191658478
H        -0.16545355436655   -6.23192716293621   -2.58827795497598
H        -2.56074148990907   -7.73773806692245   -2.12439411146905
O        -2.34956692324574   -8.02313486727327   -3.02677257002552
H        -1.59302946000373   -8.63672201069556   -2.96370251856566
H        -8.09381834820080   -7.07591533831934    2.75527026061370
O        -7.28863024156392   -6.51929752040744    2.71600911262112
H        -7.07548824103268   -6.23218927210019    3.62414784800994
H         5.51365462488061    5.67494890575616    2.69751365745802
O         5.70686136975632    4.90111805786068    2.13385521234803
H         6.60460529251122    4.57755151395118    2.34186787344003
H         0.26431673208336   -8.51858815709126    6.70728805992450
O         0.07594255381636   -7.67946534339369    6.25539974054885
H        -0.71779188266745   -7.83401605086168    5.70719469074349
H         5.46790257149088   -1.84469738219385   -6.30808448202170
O         6.04669581616003   -1.19955360187060   -5.85734894911799
H         5.43322763992827   -0.48852816391754   -5.57825822835353
H        -6.30475656145581    2.42076567433296   -1.74489002582316
O        -6.10435722691851    2.98824627294006   -0.98865454762235
H        -6.43345407609018    2.55390067567978   -0.17665913823842
H         8.65335471879971    3.87418513932394    3.13250111067156
O         8.01990135041365    3.70218201883447    2.42433266254698
H         8.53065866282275    3.70577008558076    1.58224479459561
H         3.66243998821798   -9.44252052627854    4.78687862566994
O         3.42977184790519  -10.20736247566593    4.22469335274343
H         2.61580478291809   -9.94793053056970    3.70286993489691
H        -3.64202452549591    2.45559334750088    6.58856443177801
O        -4.51931208470161    2.56618242879750    6.17906537967410
H        -4.93394761555125    3.33306968279144    6.61237905689160
H        -4.09149396933874   -7.97366439375049   -5.76446829109497
O        -4.25681948444444   -8.52163082520573   -4.96427433956766
H        -5.21409838312491   -8.71475955791663   -4.98718434339704
H        -4.41907282736661   -7.23350753061118   -3.60161411495700
O        -5.10733667463422   -6.71719538352670   -3.16626012511183