2100
 energy: -3566.427457199076 gnorm: 0.000697181426 xtb: 6.4.0 (d4b70c2)
H         5.19458666128952   -3.28410600408607    0.71452234887355
O         4.40556391065348   -2.75078107787365    0.51471379185804
H         3.82027774008985   -2.81092597758894    1.30413735589444
H         3.03373571368903   -0.23828097375375    0.62743044957329
O         2.10795833179833   -0.49772352710032    0.44359528120403
H         2.16783571661756   -1.15773550979417   -0.27202809389205
H         4.15686832386032   -0.38066370796956    2.56396388951658
O         3.61208132885542   -0.51244447618252    3.37592402824836
H         2.98069750903743    0.23594626394180    3.38824780097702
H         1.89105435627401   -2.61303588932939    1.97404623002541
O         2.69510449373948   -2.77952120443245    2.47449584122683
H         2.95973409660336   -1.94548662626907    2.90592943731568
H         2.51820223754077   -1.05321348127555    6.50456218988238
O         2.15736492414705   -1.09870779305211    5.59957253122770
H         2.87247425059457   -0.96851851480204    4.96815609286686
H         1.15046517325564   -2.38065966258812    5.08882188013678
O         0.61773885261158   -2.87226310791408    4.43742472007304
H         0.55472158463112   -2.26761498265360    3.67558790189531
H         2.90338304158458    2.03201518431292    3.03446242335699
O         2.07173782030036    1.63196111667100    3.38567750043461
H         1.51048848103071    1.50064062016962    2.58915041402903
H         3.21630866907866   -4.75175077374773    1.31450638408010
O         2.63332740428069   -4.86927783656815    0.54076376158490
H         1.94128865616225   -4.18010527449711    0.56439042167119
H         6.52726994786458   -1.49256561944880    1.95583573639613
O         6.26699387671092   -1.36000910842378    2.89150339402422
H         6.53859382252122   -0.45812256345420    3.13176453825358
H         1.16235838267560    0.90637614273118    0.64702792009700
O         0.69394278065811    1.60555321407238    1.13554933333361
H        -0.23294581637553    1.32866709865804    1.21713193560754
H         7.26784412059466    1.79282065975604    3.03634242063978
O         6.59774524205577    1.19105041301674    3.40994042341825
H         5.74280562846022    1.45629801442230    2.99801549987866
H         4.78253078049873   -1.13633987482473    0.68013395118363
O         4.61584833102244   -0.22065691954278    0.99271790213069
H         5.36348149896272    0.34213391806825    0.73860935618741
H         3.58222606257880   -4.78272835039886   -0.85514324543716
O         4.19870033705814   -4.79471066344983   -1.62080104296352
H         4.89906758686411   -5.39555103796969   -1.35681653629944
H        -0.26759842870655    0.99736314476958    4.67820767178120
O        -0.77501440739651    0.81398265907327    3.86510758392431
H        -0.23100370072846    0.17170340728264    3.36912940911272
H         2.97648489111288    5.36661816706377    3.85545843574952
O         3.14506014943490    4.41306666839758    3.75422145091609
H         2.90289605698700    4.19774154249310    2.82737227790570
H        -0.37742048517186   -1.36976167501151    1.93111807494509
O         0.41039202126185   -1.07168562433325    2.43683065764254
H         1.07762937689402   -0.82893223613805    1.76367719703652
H        -1.15777575688193   -0.51156902951364   -1.03603487320776
O        -0.24140781332343   -0.31903218681555   -0.75337759937881
H         0.04354009680719   -1.10616533363456   -0.28402464679303
H         2.61452578366827    4.33150472083058    0.66111362344645
O         2.44667891548450    3.68698335062234    1.36216084572256
H         1.69064371834041    3.14346638962365    1.11202181129080
H         1.40514759670526    3.94861056707976   -1.01618750231595
O         1.57915632861131    3.01209536926972   -1.24750199733025
H         0.69829319764333    2.59394220100196   -1.25700380306574
H         4.20558092015338    1.99822481168546    1.41624112956337
O         4.39549846391599    2.13064223582001    2.36661314151502
H         4.75375084231081    3.03865319281013    2.43809827138381
H         5.80777361432334   -2.61944812577714    3.73216151218871
O         5.50822904320058   -3.41474147980949    4.22080865369738
H         4.84776344859959   -3.10865327389574    4.84517236845236
H         1.70305499817130   -5.56497519811691   -1.59762334669589
O         1.18995896972150   -4.74325079408037   -1.72101338433390
H         0.80186080013939   -4.78855682941777   -2.60991407238442
H         0.16457845147645   -5.27939332749483   -0.52954585827603
O        -0.41849130881106   -5.72405689208392    0.12178229303492
H        -0.37090283162723   -6.67530324622032   -0.09650914335989
H         0.16331395943693   -3.08489564139072   -0.28746965899046
O         0.62942796130537   -3.06623603612724    0.57359928088824
H        -0.00082333949934   -3.41121383887420    1.22304479466166
H        -1.97727607858340   -0.74492228944016    1.12348807430403
O        -1.76078294516610   -1.69323958129759    1.04538293833706
H        -2.41104219210714   -2.17608146852923    1.57211785546827
H        -3.67414708882435    0.19778672459032    3.63874724802080
O        -3.01894269607181   -0.49673556663140    3.86822525909903
H        -2.14024149518551   -0.06139992702032    3.93972684173505
H        -0.78719999325060   -8.49463632059732    1.64432095731473
O        -0.56122837715275   -7.74789637144257    2.23085984167453
H         0.33716778720523   -7.46300461076375    1.95634029490839
H        -1.90668654694810   -3.98752530679996    2.37642875558812
O        -1.04111012328749   -4.41977624953860    2.33502915052098
H        -1.03546390122302   -5.03549285426748    1.57973739205388
H         1.29898738626170   -4.35992234905905    3.86996594458249
O         1.39554297872655   -5.13294948981229    3.27679233864830
H         0.64086843322107   -5.08989147332838    2.68690814818155
H         4.54321527359559    2.87738044558173   -0.42605471080697
O         3.97321781154782    2.10627757756657   -0.30637767405512
H         3.06733593223071    2.38975450810296   -0.51751455181038
H        -0.88170204521311   -5.37889740785104    5.26038470671505
O        -1.35948520438036   -5.89920788523836    4.58393809058454
H        -1.16407768135961   -5.45591980469887    3.74302695474280
H        -0.79016487447825    1.37460894691328   -0.83476598323154
O        -0.93677903770529    2.29150364477659   -1.10412686655978
H        -1.07100857971125    2.82682519577870   -0.29399391589411
H         2.52435166792138    2.64398526768622   -2.48917741945306
O         3.17277459874950    2.57396456827838   -3.22267689145230
H         2.67055900342307    2.25972452932816   -3.99502417599954
H         4.62052717148760    0.37304921523592    5.74322135221961
O         5.10720686155426   -0.46209966099164    5.54884596023620
H         4.93427077797238   -0.61040026309480    4.60296404977578
H        -1.81327986969511    2.28063768686825    5.66805434248579
O        -1.91900682482104    1.82663654286294    6.52923585287376
H        -1.67396777336322    0.88775836430378    6.42434512177744
H        -4.17979358390611   -3.36446772459929    2.91728460046508
O        -3.30448693088501   -2.92443784102307    2.82107556721183
H        -3.40591699000823   -2.01773848203480    3.18394768308647
H         6.94267662119845   -4.30544416725912    0.42313953851691
O         6.29542676843518   -4.51174406983332    1.13056607959302
H         5.77154028248690   -5.26828460029096    0.80233236112382
H        -4.89311441448625   -0.38367730408122    2.15266010357752
O        -4.68200674289961   -0.18507629088676    1.23177000789821
H        -4.57863737431545   -1.05835973391874    0.81799093479922
H         2.14128653172528    3.79987694198985    4.95313812701129
O         1.50620388794409    3.68591207977771    5.69408343879625
H         1.25351304942201    2.74801643220937    5.74837602155579
H        -3.10884079899393    0.37794474873704   -0.84960051122271
O        -2.79344697253528   -0.42625833474596   -1.28179403103601
H        -3.24818432172692   -1.16378455516417   -0.83757547670242
H         0.93819321799159    3.00832167673775    3.39360367871002
O         0.21813143638089    3.62421530602003    3.19463664204122
H         0.59372379091186    4.51187817320431    3.00319660636716
H        -4.41300137433109   -2.51729571045725   -1.20395189557356
O        -4.27977374517832   -2.37187094193863   -0.24927224066358
H        -3.87656971893563   -3.17442987819071    0.10612789950207
H        -2.72419811636580   -6.56403796909052    6.51630974730879
O        -2.87122836152350   -7.52494404170786    6.49546346219996
H        -2.63381440312545   -7.84800408479912    5.61308771051335
H         1.99882630270819   -3.20051265997760   -1.51135049002953
O         2.55754613154281   -2.41130847698860   -1.39742355769894
H         3.28025698359409   -2.64440089316036   -0.78417939466253
H        -1.86225513396058    1.18539185184907    2.35790177378759
O        -1.91733184794202    0.93238582777179    1.43013106905606
H        -2.71183720001265    1.32173949366346    1.03247330495144
H        -0.91561245227834   -3.06967967650045    4.91118425907154
O        -1.87571342998684   -3.01198402467889    5.12771278536131
H        -2.36033182592616   -3.02151205442580    4.28813150442774
H         2.45789285178836    4.80960142753241    6.68878103088470
O         3.09277065114151    5.49669620431951    6.96036199861551
H         2.72578087145212    5.92933291768091    7.75297175640007
H        -4.38806568821333    2.12613882989958    2.97335377869784
O        -4.74668850009891    1.43371301734853    3.55592113198536
H        -4.75940922456387    1.82265548476708    4.43672709037784
H         4.26210718921291    0.62235413713900   -1.21446046369070
O         4.20036060741470   -0.05098953550903   -1.90856864325915
H         3.27869722873216   -0.01647633151684   -2.21239670243069
H         1.08340238665197    6.33368243567247    4.87927307836408
O         0.23876034811627    5.89016296335773    5.11302762994361
H         0.49081281676199    4.97032277813549    5.32946888451027
H        -7.09035693081979    1.17353112799672    3.36982253494814
O        -7.32513372613565    0.42910555194212    3.93691780928410
H        -6.67302099095560   -0.28807371758405    3.75777350258183
H         1.03435001465085    0.02517356779818   -1.79859018560728
O         1.57359073811647    0.10632318917309   -2.61070718136750
H         1.50100586644605   -0.77430059633761   -3.01250431428817
H        -0.13268439642185    1.96282163909023   -4.48839055916227
O        -0.41579569084798    1.36276687986963   -3.79414005209581
H         0.39728109281042    0.99013541421013   -3.38103711514008
H         4.49332937323139    4.26404255334200    4.75863373309946
O         5.11375231665016    4.32706674075981    5.51379196709206
H         4.60360839793186    4.75204436079335    6.21933635491284
H        -6.39121210527332   -0.90191580896601   -1.29898172132490
O        -6.07858301205375    0.01718146551999   -1.16343371580571
H        -5.62062522694006    0.01508256551228   -0.30991327753886
H        -3.85657137305422    4.21221068614895    2.37365208565278
O        -3.46712552419864    3.32006027199004    2.26924393935770
H        -2.65830958743103    3.44987495304947    1.71918387847291
H         3.20185969278081   -4.86943092452249    3.20591104249124
O         4.06474692751916   -5.03526905698618    2.79111220825967
H         4.69108779156955   -4.41770511245010    3.23229279585499
H        -2.61747440256780    3.23428238466017    3.69215438413836
O        -2.00410052101645    3.35658616435830    4.44740502505028
H        -1.10973042202990    3.45333956058594    4.04988789549414
H         4.58872281823351   -1.77354680804151    6.43764721299038
O         4.24775068847648   -2.65937837405246    6.68214773738149
H         5.01725079084257   -3.25225440477020    6.79593410060641
H         0.52255998684062    0.93307514915700    6.90494403279580
O         0.77967228807181    1.11165306178472    5.98411695506639
H         1.29986618787225    0.31800477411569    5.73406546193962
H        -7.41821557588800    1.00583321960317    1.30019349132310
O        -6.74287509390715    1.70796721132185    1.44939715491931
H        -5.89517158173074    1.25254967204287    1.54621114735870
H         9.02385561188181    0.16208807266125   -0.13696531810013
O         9.11299199497704   -0.03117681343834   -1.09279921950712
H         8.24910245064601   -0.15626374123649   -1.54824929314860
H        -1.61950539225323   -1.51633266068354    5.99298607224294
O        -1.31142077495836   -0.79927156772879    6.57507848250212
H        -1.94203221636811   -0.78454301030769    7.31954319014860
H         6.73982654188200    2.39719234318876   -2.42196457363274
O         7.30818051293007    2.71483000364000   -1.69392041479890
H         7.93901369417823    3.36228444800094   -2.07037265100489
H        -2.02536078518702    1.69257830818832   -3.26740597211105
O        -2.93276826848879    1.84937985018108   -2.95294065892006
H        -2.87778823602429    1.89898669748185   -1.98123972205381
H         9.95397244455178    1.21819403081686    1.60633581532671
O         9.13419131950021    0.71828737068368    1.43371088775951
H         9.04372697065118    0.07327754364456    2.16422527457740
H        -3.50523178648955    2.92905718119109   -0.09424351547669
O        -3.60851089639430    1.98872850705119   -0.34381164189984
H        -4.55662754437369    1.97019168817885   -0.58392779242667
H        -0.25430618242198   -1.95503694013685   -3.44062093497424
O         0.67201395907918   -2.20732172659325   -3.61167038355899
H         0.65046686459107   -3.14608539467601   -3.84329854351473
H         1.98257773026732   -6.25707700173631    1.14013262253862
O         1.83914957279922   -7.21553797665164    1.31185088589642
H         2.59417240086794   -7.49692839836011    1.85182384539115
H        -1.87468412862861   -4.96879702919555   -0.12038053689962
O        -2.74139733433252   -4.53774608663220    0.04802338397489
H        -3.18145153117813   -5.11000383368494    0.70244881442667
H         4.73693325667144   -7.07478261007694    1.13205899804328
O         5.19829067812551   -6.80234137999345    0.30776939301929
H         6.10049063548473   -7.17639800917484    0.37585456411252
H        -0.60119513257377    3.54954622310333    1.75618185018303
O        -1.24381804170217    3.78167772408170    1.05093791456101
H        -1.32001826816538    4.75920851600633    1.10525230965127
H        -5.32539046758356    0.04260458437157   -2.77890898480253
O        -4.63586648010027   -0.10400664141875   -3.44611765776718
H        -3.92392033443197    0.51823563132061   -3.19345719863547
H        -4.77988479647492   -0.16224290390401    6.38170091282709
O        -3.95847100630439   -0.66470025636666    6.32076071970682
H        -3.58192710646814   -0.51928685610512    5.43034450180826
H        -4.89522363335370    4.57475009387357    0.45236899296041
O        -4.11316284313331    4.55000798617015   -0.11906418079071
H        -4.41995707864149    4.50887220306300   -1.04078731687689
H         4.70784681673597    1.97909328089718   -3.15001808805801
O         5.60550497464200    1.75524602355127   -3.47667611731040
H         5.88788086166708    0.90186615935817   -3.07239990902396
H        -3.41548060540272   -6.43476949467034    2.53314795919472
O        -2.92899946317019   -6.60301550072940    1.70413936763993
H        -2.05744878067832   -6.95871698839366    1.94947479652612
H         1.04047386587077    6.83363977270946    2.33185295338683
O         1.04234269989685    5.87440377262338    2.24182686777227
H         0.95572245548148    5.67007125902584    1.29573784970793
H        -1.73289566141899   -3.29751491177016   -4.99198062626521
O        -2.31425720570265   -3.86576784107111   -4.44225171147572
H        -3.00246842724652   -4.18916555528963   -5.05642359219865
H         5.81466926599151    4.16211355550204    0.71311285647538
O         5.76221081678095    4.23038309490928   -0.27243277749566
H         6.39261480738654    3.61165154468430   -0.71186344784976
H        -5.45940421682879   -2.09089967424329    4.19842544458077
O        -5.61367579065675   -1.45141234942573    3.48763797076670
H        -5.99180311798811   -1.94789982523946    2.72906558320167
H        -1.20740693327579   -3.85803285747064   -1.91686971485062
O        -1.05674325031217   -2.99572454726601   -1.50883195975020
H        -1.76778165292772   -2.84505201505405   -0.88034070427553
H        -2.53965929099492    5.03846359575051   -0.64301469814841
O        -1.84852715623097    5.49703985245645   -1.14090469179680
H        -1.70198096657575    5.00752992412979   -1.97280170272960
H         0.82417114750427    3.01178529019217    7.93379591584488
O        -0.12498939108484    3.23716520090390    7.96287772149509
H        -0.59928787413127    2.77618231065043    7.24661051562757
H        -2.25850193272333   -5.29794735300037   -3.10145795828553
O        -1.68879437353074   -5.63682965363875   -2.40212064136373
H        -2.20254393076359   -6.26538752822361   -1.86561122272679
H        -2.21848312579525   -6.44572757401549    8.67835714351102
O        -1.30711465753135   -6.18438889705700    8.49569241565228
H        -0.88836019862359   -6.86504858786558    7.94724174536689
H        -4.35876112457852   -3.80221307852660    5.89196551550169
O        -4.82026106870837   -3.00369635098115    5.60277370622260
H        -4.25685291421989   -2.24331596563224    5.87728209811561
H        -2.84232544117956   -4.35165385603080    7.52710493877039
O        -3.01300366432231   -4.79197560406311    6.65421228810403
H        -2.50126296442758   -4.22704250142398    6.02918033688714
H        -3.31159396930986   -2.91160467150480   -3.42103583730354
O        -4.05492653682923   -2.59670127341372   -2.87318110787794
H        -4.28826847703503   -1.70295810279782   -3.20139714689455
H         1.64262042829665   -9.46378177263118    2.01376442471345
O         1.65700605186072   -9.64386459672352    2.97216856310440
H         1.58202834703239   -8.78885729106197    3.44628836941302
H         3.56080228383103    4.15786431613103   -3.25639097441612
O         3.68801253754456    5.13340585870535   -3.20511489456581
H         4.62573950899329    5.32049421951574   -2.98638794754995
H         1.65737505692576   -6.55894915502758    3.99344527313564
O         1.72238677886007   -7.43071191716121    4.45065700258078
H         1.12746174939178   -7.37274160842994    5.22186017703122
H        -1.02765538482406    3.26616347329273   -2.53017283744071
O        -1.14159008090071    3.97801164611209   -3.18225116246959
H        -0.26665343912828    4.11291396282868   -3.58509606027460
H        -9.15429062637987   -1.84977842515634    3.39581247892395
O        -9.51190940588084   -0.95919110076376    3.25134079661750
H        -8.86778081778940   -0.37066533947550    3.69115622172157
H        -1.04567520812002  -10.58475573311198    1.45284123213951
O        -1.56508610242962   -9.89603003901561    0.98635060496563
H        -2.39154494510990   -9.76765609112723    1.51196611883066
H        -5.14901870960948   -7.09908444640162    7.20572513072032
O        -5.27998619750115   -6.15336309201665    7.02837209575084
H        -4.40884036179297   -5.74899560554853    6.88406002317380
H         1.50415551143473    4.32449190188674   -5.37565301429560
O         1.16227677965608    4.33861482738419   -4.46419713305718
H         1.55630429439856    5.09916043227688   -4.00849915228930
H        -0.20531202830836    5.48650117296355   -0.69101971209821
O         0.73017041277054    5.37472846490761   -0.44091701865387
H         1.22801951639844    6.16748258618102   -0.70638693817254
H        -4.91884259513669   -1.85181173372661   10.17477275118425
O        -4.85037626879273   -2.38400450959151    9.35655053896809
H        -5.38617660418661   -1.93940728181297    8.67125751986154
H        -4.52409771593012   -4.13457077135076   -2.34362471736466
O        -4.47554640075892   -4.99211209320752   -1.88475152512711
H        -3.75961398956361   -4.89682941266885   -1.22009913934881
H        -4.96493668786859    4.17472988670954   -3.46284627608495
O        -4.29078170317435    4.16914546980482   -2.75610378582195
H        -3.82625088343103    3.31910875041135   -2.85626773669312
H         4.83741485681588   -8.05183669184131    3.05567623136634
O         4.11126443556536   -7.59113678160891    2.60028257571687
H         4.13797214987815   -6.64366930882866    2.87304028693704
H         7.02379767077669   -0.70779396860079    0.14323925948185
O         7.12480451522533   -1.62542654931845    0.43083575645997
H         8.07173826310983   -1.79155355110307    0.57705438062156
H         3.19855263989631   -3.77290133497731    5.75126244184080
O         3.00104813729056   -4.63464839874992    5.35881272043266
H         2.64488607033079   -5.16192559961117    6.08988019490533
H        -7.30958480355947   -1.65159255019761    1.18144884152758
O        -6.65119608019072   -2.37269256411623    1.24955725651451
H        -7.13418102207419   -3.21262277842703    1.35445265650832
H        -6.63219160010361   -0.93964636563410    6.97068676556834
O        -6.43055863940061   -1.81926349918144    7.31869116844015
H        -5.84182501704415   -2.26430863005854    6.67299156502255
H        -2.37025044215989    3.69711688332604   -4.46972529778012
O        -2.79702745995943    3.51807262193879   -5.32805027039605
H        -3.26063099314061    2.65476192390898   -5.26851353977969
H        -2.97812073390320    0.67762005565645   -5.87572307135819
O        -3.84496549826838    1.10465440056850   -5.72412256613411
H        -4.27214830295011    0.61965074344853   -4.99934429544989
H         5.03540318013884   -3.16023411812122   -1.83127006690120
O         5.58556333798205   -2.36998561924020   -1.92693224439000
H         5.02141575906843   -1.58957313109695   -1.77867429528692
H         0.09482313080181   -0.39156450081693   -5.90320593386692
O         1.02226264367747   -0.65273707861577   -5.70568122637210
H         0.96092134182467   -1.28723924421581   -4.95751956258906
H        -0.74271401707931   -4.69166175821232   -4.32919943442987
O         0.21259250765062   -4.83192850461829   -4.24691352501595
H         0.47450934441540   -5.44500866928197   -4.94942719916471
H         0.09726518901857   -7.91616431318466   -1.62157867675286
O        -0.29349371194295   -8.21682979312671   -0.77201450161640
H         0.37602172712638   -8.76671971697694   -0.32279101486109
H         7.52869096884669   -0.24677943559800   -3.53189070651765
O         7.05910844716518   -0.26671165482071   -2.67517423788332
H         6.70188454523434   -1.16485072895472   -2.59214521732472
H        -3.10333792642905   -5.96372089833157    4.43474152999728
O        -4.00729253268697   -6.07759243234689    4.08660807172983
H        -4.32918589961277   -6.95449662629230    4.36847303729791
H         9.63029987782322    1.35692235366691   -1.65727944513555
O        10.10105975088366    2.18104110770860   -1.94042125337542
H        11.04491322820286    1.95606039133623   -1.82019928541509
H        -5.59567884192152   -4.54081391800485    2.20408214868685
O        -5.62188402129937   -4.17900100487820    3.11146847453434
H        -5.26087566620655   -4.87086296482823    3.68773661853149
H        -7.70856051732086   -5.38710427038316    1.63845330485382
O        -7.90767566933787   -4.67346879412468    0.99239878472079
H        -7.55996068506534   -4.97158881072208    0.14086811373791
H        -1.97188712655800   -7.96731996935383   -0.67203000970464
O        -2.84997444442955   -7.58314834371464   -0.85427431643377
H        -3.15782986693437   -7.28132182025029    0.01365538394588
H         6.99782564900080    1.62766444977563   -0.44758911532055
O         6.78553829494885    1.11921467716791    0.34806789273490
H         7.55991416167903    1.18514816593623    0.93204985122839
H        -7.50711110071851   -2.97189416378315    6.86458741604974
O        -8.12078792147730   -3.61511961913219    6.45589423087768
H        -8.91355789832921   -3.58085880521159    7.01757437794971
H         2.76697823503802    2.14497468411661    8.85980815919298
O         2.57672677057466    2.74164617805986    8.11206916871591
H         3.14137757547436    3.50816589192491    8.26877667301469
H        -5.93680465374274    3.38927949973496   -5.56508841860693
O        -5.94483492677495    3.97548143222305   -4.77871692019989
H        -6.09734124907565    4.88024939034339   -5.12756656462420
H         3.16833505878957   -2.22302498221321   -2.95805401385880
O         3.51197924641274   -2.16887611660200   -3.87433162464283
H         4.31271020849348   -2.72723937148384   -3.92814693336341
H        -5.14010172260328   -6.21812452237271    1.04409078169411
O        -5.20037949777964   -5.28202190513621    0.78287773984900
H        -5.45951117433413   -5.25043564188819   -0.14398809845653
H        -0.62799386118101    6.91842682993235    4.11180260680004
O        -1.06039934076004    7.67680837326464    3.67655906861351
H        -1.81859821251622    7.87730731679237    4.25820536061111
H        -8.18945218313007   -3.21402838028645    4.76530942737814
O        -8.09746115673374   -3.21341382348288    3.79346688616346
H        -7.20436312099144   -3.55528608299112    3.60040894689059
H         8.81869758449943    1.67262102072557   -4.54019738780567
O         9.09930309813397    2.57199400291101   -4.29524949440132
H         9.46564999129320    2.50062101795474   -3.37623410400433
H        -9.88650402526208   -5.36028641764675    2.30790669942736
O        -9.72770966028432   -5.24670539937981    3.25397538314119
H        -9.14514708971465   -4.46918229951408    3.37183790628397
H        -5.72816552606167    1.48499047066299    6.27084291317732
O        -6.35575684786003    0.73928250601100    6.34497459049120
H        -6.80339911617582    0.65022729638056    5.46702718626327
H         6.34936485906448   -3.28709701119401   -4.22417115612805
O         5.58022468885837   -3.89771009047163   -4.28884448231921
H         5.78708114614051   -4.58436331706818   -3.64185372189028
H        -6.40962551243812    0.97797388639377   -5.98660367962747
O        -6.72392594705365    0.22813532263033   -5.44817034347170
H        -7.55229722359638   -0.06634566329012   -5.86439135359539
H         3.39660894952489   -7.16158108453816   -1.47942776433328
O         2.44393373576878   -7.10221127035910   -1.29264302046306
H         2.28867872192860   -7.26269585961590   -0.34447279058843
H         8.09166348894001   -2.31003595194828    5.69396717136132
O         8.18602223542973   -3.28302054626018    5.60884478572001
H         8.08621196679517   -3.48120052101209    4.65438057063738
H         6.39569394181591    1.63734372622694    4.97012068681845
O         6.40329991515515    2.03809028830171    5.87122510348452
H         5.87370830883711    2.85973329493107    5.79962796725027
H        -1.38190356951814   -9.60792764577639    4.53218950047382
O        -1.75253174033948   -8.73462406321326    4.35938636994726
H        -1.20881260579133   -8.30204928511783    3.66606318520190
H        -7.45467426182032   -4.90907030579928    5.55422678715899
O        -6.99147553778611   -5.65401361703069    5.12997321480624
H        -6.27374615002262   -5.87804403239184    5.75662882055035
H         0.73412826730879   -5.20132152918819    6.81433216729960
O        -0.07465446671099   -4.71902938601899    6.60942911461082
H        -0.70050064956250   -4.97365303118186    7.30798919167629
H         0.48791303044292   -7.81262776740193   -3.85045126228512
O         0.50103050216637   -7.23404811005849   -3.06505614118944
H        -0.23144327319431   -6.59873659636514   -3.11735873751997
H        -2.39269813834742   -8.23889944901878   -2.55537882007188
O        -2.15956390083628   -8.57107855344278   -3.42930072535289
H        -1.39128162057371   -9.16154119831157   -3.33331068678015
H        -8.32344110855343   -7.01985965981943    2.74875334668937
O        -7.42845964051777   -6.63764794450529    2.67862635460192
H        -7.23134981492111   -6.21650169512892    3.53709501692983
H         5.66505246426501    5.12202780286373    2.80836215106695
O         5.81670544520730    4.29388052621978    2.30060266354615
H         6.72021499707412    3.96152498576235    2.48763589306564
H         0.00293427182148   -8.46957909233727    6.53381393047040
O        -0.04961359566527   -7.50609852851166    6.41820993953613
H        -0.71375850187491   -7.31606373942570    5.73699118233178
H         5.56881908976196   -2.10587953238172   -6.33610326534512
O         6.13472728209692   -1.37819371998494   -6.03230829220888
H         5.51111391174134   -0.71261584642437   -5.68898588981742
H        -6.30444238229837    2.23841456724165   -1.73031814965900
O        -6.03964854773420    2.70247012301713   -0.91396133511305
H        -6.50830646328186    2.32217205604464   -0.14482035357991
H         8.78100598398056    3.41834460446856    3.10029345852258
O         8.12492406599969    3.13125764940789    2.43965112720757
H         8.59789885527599    3.19035577063967    1.58196736562032
H         4.05692124698636   -9.73828530323895    4.74028021506379
O         3.86800672553879  -10.47869363541222    4.13035251687181
H         3.17076727365479  -10.13912757193814    3.53121655193300
H        -3.52376803014845    2.19020435142145    6.29370710752848
O        -4.42330429494200    2.54780014436846    6.10973883106662
H        -4.64146007808308    3.01933248068458    6.93162459635685
H        -4.22097664217209   -8.20649828315294   -5.84742679976765
O        -4.43017846958878   -8.71733026548793   -5.02768157914873
H        -5.40937795869490   -8.81796916397208   -5.02982951711480
H        -4.18934829344251   -7.15264593086474   -4.11858739072121
O        -4.15822725727743   -6.18718146327024   -4.14492042847682