2400
 energy: -4076.130716972258 gnorm: 0.000689583288 xtb: 6.4.0 (d4b70c2)
H         5.31826973340891   -3.38356491973253    0.87378813292915
O         4.57619581981554   -2.79394904120953    0.65248224075896
H         3.95557978532091   -2.84223138163908    1.41554983203367
H         3.28746504673134   -0.22299455903367    0.71596891158234
O         2.36322048055078   -0.46970161823307    0.50913967021984
H         2.42615519010965   -1.17600807326211   -0.15881901367453
H         4.33829843168111   -0.43760551642168    2.69997189678073
O         3.75303820796096   -0.59196809205613    3.47600816469274
H         3.08912608429685    0.12592583021509    3.45755771711268
H         1.99303522886109   -2.66646041343633    2.16792975756901
O         2.83595097459147   -2.86696888135770    2.58200045559962
H         3.13819788020924   -2.05691304269541    3.03476869601090
H         2.96577332705354   -1.29551913639265    6.56170875323518
O         2.58909455787665   -1.55012489377707    5.69529271828272
H         3.17799569547145   -1.22432437001976    5.00213977722819
H         1.05012227549682   -2.53867373139026    5.24145762967733
O         0.55922309780159   -2.89030517245099    4.48583255496571
H         0.63285910602518   -2.23390599625603    3.77786381328830
H         2.97348262891609    1.92365177968689    3.09174698803199
O         2.14702175297370    1.48545794229559    3.40569855167535
H         1.61571501628584    1.34742250315745    2.59551800599901
H         3.39798490626148   -4.81204483663213    1.31914842723720
O         2.79047104653095   -4.90547558827229    0.56432554208535
H         2.11309272064050   -4.20342041151544    0.61477649749337
H         6.62860623838110   -1.52633722067945    2.18794133251518
O         6.35569389717832   -1.35854751187224    3.10350088396291
H         6.65802375424611   -0.45591077252495    3.29793464450128
H         1.17336325728069    0.80301000130176    0.63831348254320
O         0.73164847440165    1.50365968182649    1.14908324821860
H        -0.19439643955241    1.26013163846406    1.26178183421991
H         7.38764260561122    1.84834556685003    3.15982134626904
O         6.72228141555385    1.21903375113650    3.49713002638615
H         5.86990659820531    1.47376278763376    3.08062000669433
H         5.02552554481796   -1.15826419377395    0.83918927049614
O         4.86966891738234   -0.23515045674009    1.11911207018467
H         5.65219573705979    0.29736951862553    0.89236170752545
H         3.75112442308901   -4.82093923613685   -0.83509106500146
O         4.33807834092151   -4.77797441790360   -1.62200339001739
H         5.01385997236066   -5.43998481026365   -1.46228315912752
H        -0.12683802555189    0.62736028792352    4.84007163654380
O        -0.63559655452789    0.54161059557560    4.01067924931627
H        -0.06547144576306   -0.00731157026298    3.43683581495463
H         2.77422651649351    5.12259395997575    3.97022364441462
O         2.94003339927337    4.17516352005180    3.81955128624176
H         2.77056932115199    4.01237427595342    2.86956299370961
H        -0.11329902626454   -1.41922277683559    1.93180892793565
O         0.66526005331480   -1.10737303788111    2.44396875825262
H         1.34012177223618   -0.85133352971965    1.77911616023343
H        -0.91267514846779   -0.61060035653030   -0.94384349411438
O         0.00929030580594   -0.45855982237270   -0.66140658157933
H         0.27830747878736   -1.28372828285995   -0.24719646449158
H         2.77711933314341    3.96713887549479    0.56553511957774
O         2.33609666870003    3.66196576563324    1.36556932340999
H         1.70341110920456    2.97068271431970    1.13093177967568
H         1.60868826574735    3.50903554603026   -1.13305389018013
O         1.76535762760908    2.56545095718315   -1.35442699022496
H         0.86710194795788    2.19034797902374   -1.34730978682498
H         4.37123915002949    1.96707115839081    1.47808919262438
O         4.47260988014415    2.14058694772006    2.43379591547195
H         4.83497442294002    3.04645767159586    2.50756516870585
H         5.90242298768377   -2.70397206208721    3.88417771847945
O         5.61831031307882   -3.53429441942595    4.31001111056885
H         5.12451769171087   -3.29644917715809    5.10554900347397
H         1.86035262203436   -5.59060155595238   -1.51892777729048
O         1.33617296864851   -4.77640698494649   -1.64596864525556
H         0.95594055432354   -4.83012203507283   -2.53624318815666
H         0.28686651657617   -5.29936265700369   -0.48629795575698
O        -0.31567693084230   -5.71354136110316    0.16935434280724
H        -0.24924401062963   -6.67656180954995    0.01357441928123
H         0.32346223041737   -3.16569513627841   -0.25216512386691
O         0.80485847259180   -3.08941672364407    0.59672348192670
H         0.20532301120115   -3.44504396828465    1.27019696772752
H        -1.77394335559707   -0.79300848405247    1.20890262034550
O        -1.53510451160999   -1.73344448583754    1.11834046926333
H        -2.17945136933597   -2.24454439708858    1.62978384868084
H        -3.54294218236825   -0.08040777637333    3.90464582270547
O        -2.87904987265781   -0.79238262122554    4.04719357701434
H        -2.00006159457587   -0.35959696041604    4.12319859617393
H        -0.68321925645752   -8.45812173456348    1.77149906391620
O        -0.45467377468463   -7.69761874312150    2.34001444957376
H         0.43786285666305   -7.41315090395703    2.05322016621283
H        -1.67329128406379   -4.05740333311680    2.39005709926350
O        -0.78230565709871   -4.43747780401164    2.40032216289492
H        -0.70173259816735   -5.07276751687235    1.65844212880889
H         1.88466433694009   -4.71218992292606    4.21613735253291
O         1.57202956741225   -5.24529313807151    3.45704544899463
H         0.78256183696192   -4.79511158519740    3.13722365355266
H         4.41419864045170    2.90973689162092   -0.45734302345080
O         4.11701111863330    2.01817275078632   -0.23903549350006
H         3.18318539167502    2.00222015046733   -0.51592624588450
H        -0.74920587094729   -5.67723474701606    5.32396026583660
O        -1.25161045199978   -6.03280624963875    4.56666891118799
H        -0.97544895928009   -5.52024361127876    3.79315521656646
H        -0.76507132437508    1.27160636245040   -0.78779847658573
O        -0.81251830816924    2.18438743402586   -1.08812197006441
H        -0.98546890110174    2.74878487687877   -0.30980789684017
H         2.63665760676673    2.29269316765207   -2.68887954857978
O         3.18147407673154    2.31990054387279   -3.50911745542917
H         2.55386944078670    2.43872952425162   -4.24314993915142
H         4.74010185790702    0.27635561683203    5.85680004291473
O         5.29216343206510   -0.52273073083737    5.69040811625269
H         5.16343985639437   -0.71441629871573    4.74898387353300
H        -1.72914220303452    1.97231693008635    5.67989715763511
O        -1.78083772744804    1.55445644431218    6.56048035045411
H        -1.52456232250547    0.61259457818492    6.48197709123905
H        -4.03383514379893   -3.46882381825994    2.68252209429580
O        -3.14196859714854   -3.05650260641805    2.74010973567542
H        -3.24389140246005   -2.19612221412215    3.20306319616963
H         6.95226340701062   -4.55701831793848    0.47829787442172
O         6.37140229339247   -4.67245493136404    1.26275161190031
H         5.74615248508879   -5.38024249867522    1.00914637968824
H        -4.74562318121276   -0.58827387840474    2.33738250301901
O        -4.43744786276589   -0.27678453265916    1.47011005243757
H        -4.37934188784929   -1.08874369430876    0.93572895924536
H         1.97395446383383    3.38157332965690    5.02386642224371
O         1.34933635514295    3.25769698980713    5.76698245461982
H         1.19945323659140    2.30588071572642    5.89139034126380
H        -2.95357171877480    0.41173683813846   -0.82706962266498
O        -2.56276419378207   -0.41177523533381   -1.16728895850856
H        -3.03935760633545   -1.13888710579438   -0.73264080485102
H         0.81025413449564    2.73247370630825    3.40503196730415
O         0.05648671898394    3.28387321519477    3.15670512509816
H         0.37210018402956    4.18741791988703    2.95101952296592
H        -4.23498697676743   -2.46928918137432   -1.14189812647573
O        -4.08470738265746   -2.34914156492734   -0.18520506187225
H        -3.68138141480880   -3.16460909177167    0.14725075831516
H        -2.63277607879324   -6.68300896669648    6.73394831506280
O        -2.82745015139502   -7.62202568472314    6.56442927938325
H        -2.44928193561639   -7.82880623035141    5.70054360361106
H         2.18291400619021   -3.25201313124298   -1.38723041672989
O         2.75269624583698   -2.47168130612824   -1.26423988117644
H         3.46620982866518   -2.71162734260259   -0.64206544552430
H        -1.69418843921897    0.98780834512057    2.57245170882080
O        -1.94111654556116    0.85827578940638    1.64654070243118
H        -2.90653553726116    0.77110589728790    1.59818166058036
H        -0.93156043635292   -3.22185402221969    4.92677474801350
O        -1.89176927001955   -3.24348019338020    5.16811868471880
H        -2.37479907970327   -3.29976778283629    4.33204985200538
H         2.34150729481068    4.48009094264304    6.65946309707132
O         2.94795525352500    5.21731871093891    6.84349321723807
H         2.74497507490302    5.53015138707917    7.74681366631028
H        -4.46768075697527    1.84917968559815    3.34376835517043
O        -4.62702038214303    1.10339743268461    3.94306432640112
H        -4.65371940431325    1.46776354810539    4.83369310624002
H         4.56877244013925    0.55592813338218   -1.12908068720162
O         4.48584626980756   -0.12942199716781   -1.80736671946985
H         3.55231123002840   -0.13967511860065   -2.07646261675508
H         0.87798622921215    5.87506284273739    4.85024023838911
O         0.05963840559050    5.40885098202112    5.10526487873997
H         0.33679106910088    4.51389393245449    5.38774915925095
H        -7.02637115833361    0.97484784370862    3.50179406475307
O        -7.24820985605850    0.27388628075122    4.13148055272263
H        -6.56504303149030   -0.42044603969459    4.00604578846980
H         1.32074246315833   -0.17309527051798   -1.67250745611681
O         1.86123363688460   -0.09218239743420   -2.48375271115798
H         1.75114517258757   -0.95536499898266   -2.91435882860402
H         0.32761377849879    1.68074960871543   -4.40212183900271
O        -0.06133191508188    1.23684108315004   -3.64213962338177
H         0.68874514859040    0.77689821263593   -3.19972147810846
H         4.35170472761633    4.01306464973764    4.73573195617431
O         4.97176535911658    4.12381186800714    5.48320819396696
H         4.42647311250060    4.51152250763215    6.18793136963879
H        -6.24392874684780   -0.64820461226265   -1.09527431111219
O        -5.91348387413912    0.26317026246107   -0.94421716879141
H        -5.36200965963881    0.23149245486017   -0.15362419663834
H        -4.20382568622008    3.91597305895830    2.53733630019988
O        -3.78390507618948    3.05456304448484    2.37146073150361
H        -3.04267804800465    3.23014525179091    1.75992673155661
H         3.31252320146385   -4.93173704247265    3.13970439788818
O         4.20891326763125   -5.11191250068510    2.81813608938449
H         4.78585836342684   -4.46321912816843    3.28628878972465
H        -2.79263881681013    2.91881336001602    3.70864475090776
O        -2.14188703253020    2.98904824181381    4.43632801387613
H        -1.26262169050815    3.10544993439024    4.01267897381137
H         5.09013908925895   -1.91881924676049    6.67762374588931
O         4.80220400252525   -2.82208548806704    6.89741820748620
H         5.57291518946115   -3.36064447020342    7.14353148262802
H         0.73682959485181    0.44119175438481    7.03742207976105
O         0.97472924320358    0.59506883644717    6.10503459372123
H         1.51844594377827   -0.18007172329368    5.86936192175851
H        -7.13053130878047    0.83483553557337    1.47932697670488
O        -6.50335573928587    1.53524444598189    1.76790321139610
H        -5.63336346576138    1.11986883502268    1.79830803642426
H         7.77985097934086    0.16317128740571   -0.51894711222505
O         8.36790875372022   -0.15738730711911   -1.23672884105728
H         7.78542528913583   -0.30029643929101   -2.01925440900007
H        -1.61947077038253   -1.73790329224156    6.01462399254175
O        -1.22844509807539   -1.04811415669970    6.57757305298083
H        -1.72651923242072   -1.06546868188720    7.42423405493722
H         6.38244927866986    2.80729742601092   -1.93619065514977
O         6.84968217866769    3.29943489850853   -1.22629002564031
H         7.63228244651673    3.67994648114841   -1.67029501426163
H        -1.78491187063911    1.60208824290218   -3.29147860034562
O        -2.70544348030594    1.76285542977205   -3.03417305218100
H        -2.71822485464047    1.86860892501773   -2.06572493165181
H        10.04382972965650    0.77953682916393    0.96583396182597
O         9.32783823700842    1.14351633354769    1.52166705652105
H         9.13162708901696    0.43806506012342    2.17436189501444
H        -2.95446436567358    2.54386940246829    0.02893327871057
O        -3.52418712169623    1.94509092586621   -0.46023242712312
H        -4.41348391473017    2.35456411577345   -0.44529992293824
H        -0.11487272459835   -2.08355174872974   -3.22415510821678
O         0.79460739070249   -2.32979439931092   -3.46832837325788
H         0.74411506699358   -3.24845112499774   -3.76882795190875
H         2.09356028082597   -6.28274397074177    1.19279131929539
O         1.94534789036154   -7.23843658240103    1.36439748504862
H         2.65530623309324   -7.51314248947585    1.96248208077336
H        -1.77982409792116   -4.97144427069159    0.00185778835834
O        -2.67362608640899   -4.58994244560379    0.15045433919295
H        -3.08684687507280   -5.21703517237134    0.77474560024981
H         4.66267869259245   -7.16338119415084    1.29201691058958
O         5.10153668817590   -6.87498699591669    0.46665372750381
H         6.02296752876043   -7.20291138228206    0.53091781446986
H        -0.89215323451212    3.37695066552405    1.75061927610092
O        -1.54665550913856    3.58718393550298    1.05530999390490
H        -1.66490503163918    4.55737474448263    1.07237542021914
H        -5.17537039806940    0.18976436047988   -2.49978522288475
O        -4.57886001895593   -0.03855865055885   -3.23274061738119
H        -3.78989252765014    0.52490249333864   -3.09882566134387
H        -4.09117395312820    0.02729607707060    6.68154814885667
O        -3.99168193523184   -0.89969325459899    6.45270138420225
H        -3.58764437317800   -0.93664533828417    5.56289536665475
H        -4.35440906973275    5.44017818903369    0.05760620065995
O        -3.87205601380040    4.64511153123434   -0.20272211557149
H        -4.23867167032079    4.37370886240499   -1.05900281687085
H         4.83566190362834    1.97521853251037   -3.25663828527092
O         5.80351471772958    1.96217481066464   -3.22120077565496
H         6.06594237494270    1.02167800827309   -3.22102671172840
H        -3.30189554631146   -6.37042874361640    2.69232692270803
O        -2.86348387013150   -6.60241663576515    1.86082571888041
H        -1.97475691254324   -6.92894519348427    2.08700948150257
H         0.78692408126779    6.46602231861927    2.12368992424324
O         0.45974097821854    5.56232652392789    2.05175693984835
H         0.76388812532341    5.21473619078302    1.19548473482285
H        -1.60390164827242   -3.39568276216655   -4.85976213856820
O        -2.28471129018223   -3.91245220065254   -4.37846418423666
H        -2.90544618132913   -4.19092856058579   -5.07685094866277
H         6.08557533211631    5.04455170566392    1.15043031666654
O         6.24105228322393    5.39726983708163    0.23340224154577
H         6.52593950406682    4.63750299737999   -0.31965096750716
H        -5.32544831628634   -2.28822453978303    4.26812221549593
O        -5.53269923654752   -1.64009470387567    3.56840516800169
H        -5.88921573866438   -2.13386124703596    2.80521764106687
H        -1.10869689753470   -3.91957030996981   -1.81408052568899
O        -0.94331328175233   -3.04909095290155   -1.42291289018507
H        -1.63192141422660   -2.87541276233986   -0.77725843967226
H        -2.40538355762624    4.93029458783680   -0.81000107560719
O        -1.61088194342714    5.28719859813233   -1.26390425441691
H        -1.48512949556685    4.78961939962083   -2.08926896212072
H         0.72479402001574    2.64550904809175    8.22391749161611
O        -0.22666135903791    2.83132585828397    8.30623670264280
H        -0.69285415619247    2.41253550788874    7.55788808160282
H        -2.12135807330003   -5.22154615894470   -3.05863956946749
O        -1.57182166733476   -5.58439050101166   -2.35069073664391
H        -2.09830784999045   -6.19427311058248   -1.80796750854682
H        -2.00189738377944   -6.86852615759067    8.80568449982778
O        -1.09684837572196   -6.57474301561798    8.64214662292470
H        -0.66138659111289   -7.21645817473605    8.05834467678581
H        -4.45445983819167   -4.31864689512045    5.15347576099450
O        -4.78557054879612   -3.44633896870925    5.40826239846749
H        -4.14537464797869   -3.05655288963385    6.00475874851305
H        -2.54580626652716   -4.53094233051128    7.79801322632960
O        -2.71661766125926   -4.96783260584728    6.92964010475641
H        -2.35130233316760   -4.36404263065535    6.24714223496515
H        -3.23585651528799   -2.83547803741763   -3.40215968619634
O        -3.95382114371397   -2.53314046681875   -2.81494475490058
H        -4.19878161418322   -1.62239958486333   -3.09014733719515
H         1.82422323605114   -9.48389439649407    1.98714274462403
O         1.83095598818269   -9.73833867335628    2.92549328124407
H         1.65724336471187   -8.93743253207090    3.46032462493404
H         3.69137559163986    3.96912813238993   -3.38683249302549
O         3.75782877301194    4.93078785539665   -3.23521806672016
H         4.71226200332784    5.17091560296976   -3.07725596498067
H         1.61559188852570   -6.73978879598892    4.05530879684342
O         1.68176305396524   -7.60801590932444    4.51801551426269
H         1.10059483943469   -7.55580800748595    5.29779939476829
H        -0.73842346237851    3.09348317042540   -2.62687566766596
O        -0.82104094570521    3.77759056949615   -3.30743380235898
H         0.05061823402610    3.84982693812330   -3.72124226815408
H        -8.86152366664998   -2.14622167165108    3.32186584980928
O        -9.24491395587265   -1.25276443908356    3.27380847948946
H        -8.64340335128599   -0.68574178964513    3.80138005755734
H        -0.84959684106211  -10.60190188567480    1.44557312655058
O        -1.41175648013910   -9.85908305922986    1.13898247225168
H        -2.17116442095472   -9.79876709194976    1.77047459895303
H        -4.97556369682614   -6.88857261728135    7.33344062876977
O        -5.10452220530643   -5.94794747360524    7.16866130552266
H        -4.21328003700299   -5.55482918780946    7.01304228285676
H         1.75451629543804    4.20063643752697   -5.59555210356937
O         1.49462772942914    4.16025078402164   -4.65840578818622
H         1.84119246879462    4.95186915873821   -4.20519203091776
H        -0.01037669153586    5.07169662281213   -0.84209419452498
O         0.92545129812442    4.92129526521715   -0.59947196854706
H         1.44208749864181    5.69969142191401   -0.86932008554178
H        -5.04654555247680   -1.84203656511899   10.20590555650358
O        -4.70951010098139   -2.20493111674848    9.34531190093300
H        -5.35882885173958   -1.94959761464321    8.64822110211462
H        -4.37402107925015   -4.07263641764055   -2.34031713737592
O        -4.30105788908432   -4.94516249498560   -1.91184124173268
H        -3.59342836110029   -4.84807780580669   -1.23627288016612
H        -4.82793085931680    4.14508650187129   -3.51917365506814
O        -4.14571129892933    4.05100131055522   -2.82747778277051
H        -3.71206478102396    3.19746160721679   -2.98780876755638
H         4.95003538393926   -8.13379834182634    3.11772626584052
O         4.13635752768802   -7.68894186371054    2.81945466548991
H         4.21156310661845   -6.73990841432156    3.06211659260975
H         6.85971689148562   -1.90346823879262   -0.26899606509016
O         7.20054385461362   -1.86831106355010    0.62999777841667
H         8.17157386079563   -1.85122208004107    0.60445939711859
H         2.94023568730326   -3.33733344119651    5.55134552243357
O         3.07584688836166   -4.27984231413668    5.35679056483026
H         2.85631402982258   -4.77722314962260    6.15939791642881
H        -7.15649113281059   -1.78510893480147    1.21494855429858
O        -6.48219292320948   -2.49180178040943    1.20922238755181
H        -6.93318712103723   -3.35405155491653    1.21459228997120
H        -6.77996003723846   -0.98671911589752    7.24940739552000
O        -6.27263041727582   -1.81641525964465    7.30179395097575
H        -5.45320468462114   -1.61448093913339    6.80328268191573
H        -2.15071006951103    3.46651618893940   -4.66485608345000
O        -2.82319402694860    3.42539374372024   -5.35917137056197
H        -3.30340649028733    2.58150477430359   -5.27016334998856
H        -3.01527965236045    0.65327077605233   -5.64731409279061
O        -3.92287872370417    1.01971082357150   -5.60963214029383
H        -4.35194895518351    0.61705675805387   -4.83893467426310
H         5.12284869935447   -3.14291232293216   -1.80819102939774
O         5.75459371003760   -2.40555386813528   -1.82984484009390
H         5.23631413820217   -1.56898284967861   -1.75649319265016
H         0.03147343853892   -0.37052235964409   -5.64281691544852
O         0.95500846158411   -0.67635067722916   -5.51914365391247
H         0.92998774953696   -1.35018584938797   -4.80434587769043
H        -0.60964226200419   -4.80174781514972   -4.29322388892908
O         0.33782717141074   -4.93778852849367   -4.17184996488011
H         0.62632873237110   -5.47054658628171   -4.92746613341347
H         0.17279556125353   -7.93797115190664   -1.48143160752858
O        -0.17943876389869   -8.22720244797027   -0.60811764197827
H         0.51145197416019   -8.78000638299114   -0.19735088481576
H         7.48323213174549   -0.45794318961030   -4.08345312819634
O         6.88203176752226   -0.49136704594213   -3.31454255471631
H         6.56706465060500   -1.39740818738506   -3.19820589214575
H        -2.86738376443932   -5.90643553882131    4.54216683774808
O        -3.82888822405789   -5.87066358435657    4.31311603854247
H        -4.21901565611843   -6.73708340942041    4.54164181283541
H         9.05158724554769    1.30069618539443   -1.45033864711007
O         9.47921115373610    2.16643529849354   -1.64096248610209
H        10.44625185827845    1.98868041925151   -1.67720058456276
H        -5.36288672585079   -4.84110456546132    1.88352495836147
O        -5.40420849399746   -4.37112138788422    2.74077066203720
H        -5.05254959670983   -4.98582004294596    3.40148629621115
H        -7.31764140712190   -5.54480370064651    1.34751067920532
O        -7.66266367234073   -4.85496346494822    0.74643422697900
H        -7.31371291007321   -5.06534268963696   -0.13171519153294
H        -1.84079357054355   -7.89109002353904   -0.58761605514556
O        -2.71903603737791   -7.52920187276841   -0.81074909972378
H        -3.13690767646794   -7.36391700440151    0.04405000022426
H         6.87437301286424    2.05051720576998   -0.08358743040583
O         6.95019856838853    1.25578035582057    0.47350227752072
H         7.78643451089505    1.34007302208260    0.97851223792950
H        -7.04225097243445   -3.08531776573336    6.56902718800250
O        -7.66542469998527   -3.77958889932257    6.26049202461741
H        -8.49554398263732   -3.61392092763146    6.74445051436375
H         2.73707459765044    1.82110463851141    8.97421634799535
O         2.50376610415318    2.40326087631135    8.22753295491367
H         3.08523885202123    3.17062612391341    8.32914873368836
H        -6.02184129951167    3.45895256934631   -5.45455031647720
O        -5.95325306461094    4.15912830007223   -4.77406124361661
H        -5.80879274372701    4.96678577948597   -5.29695209611832
H         3.27421249017543   -2.28889569636194   -2.83288419395742
O         3.55302538797079   -2.19488400415797   -3.76795486996540
H         4.34021236072929   -2.75384294052578   -3.90932190848754
H        -5.05381605928811   -6.68861843459134    0.64610064382186
O        -5.11617005925168   -5.73294322003057    0.52196554774867
H        -5.11936218037934   -5.53453503634614   -0.42199219328629
H        -0.95362974325652    6.27177911789764    4.11374338918040
O        -1.39747926502248    7.06279499901460    3.74973223667040
H        -2.08799741518257    7.27221637247150    4.40403422391129
H        -7.90907690829402   -3.54243410907930    4.55372525672555
O        -7.91942783158894   -3.60953558545307    3.57874678744746
H        -7.01472700085752   -3.85133413979677    3.30850353819689
H         9.01113140956385    1.51534159430794   -4.45689313029658
O         9.23879497435282    2.42541107672082   -4.21244599102562
H         9.32305462289339    2.43304352458838   -3.22257004250436
H        -9.79297076192569   -5.74243984569970    2.11249973525616
O        -9.32659838617636   -5.83802386654194    2.95517351530252
H        -8.85897676719165   -4.99347350810998    3.11567986161606
H        -5.95498961515196    1.23153487126956    6.68378520134610
O        -6.77194427470612    0.72133080482959    6.70584635571389
H        -7.03956593095258    0.57516619875245    5.77298011102961
H         6.16213837285460   -3.05380490855839   -4.87545299556157
O         5.57585205672835   -3.73872167597556   -4.52606943337682
H         6.09898858977241   -4.33496244893745   -3.95436246603915
H        -6.32143620471878    1.20789555049761   -5.61205682149504
O        -6.62728053828147    0.55550762489324   -4.95558959279360
H        -7.47466651707872    0.23697176159998   -5.31799509257200
H         3.60149593474584   -7.15876125635684   -1.40421718567037
O         2.64333592701282   -7.12168581935248   -1.24475513094490
H         2.47214569299815   -7.28291731015316   -0.30162246302938
H         8.11046635851908   -2.36770512514916    5.56963978253769
O         8.17002051164869   -3.34428846531679    5.47698466394716
H         8.07837307419607   -3.51492493451004    4.51273725743001
H         6.55369442960641    1.60988022513195    5.05482434553126
O         6.42836834866115    2.00537409981595    5.95254041620717
H         5.79037643889215    2.74317866984096    5.81911499939821
H        -1.06962356190067   -9.65182820532289    4.61988617420767
O        -1.36106187891741   -8.71656625750787    4.59570161701659
H        -0.91199976807618   -8.25639610097405    3.84945609667229
H        -7.05116268799366   -5.07931902500704    5.29791895215451
O        -6.56737831162569   -5.86786725104548    5.00822340602076
H        -5.95477824602610   -6.02002176240312    5.75647127141491
H         0.94344363314675   -5.49905576812055    6.84150372838556
O         0.08635379872006   -5.09825451505636    6.65875160480073
H        -0.49821759660170   -5.39132277679180    7.37739817507337
H         0.62325898853628   -7.79548298889448   -3.70306105185119
O         0.56126877366401   -7.26517153673126   -2.88658770004907
H        -0.11721501246356   -6.58031058870048   -2.99060423407290
H        -2.31218112538760   -8.12479748006702   -2.52260001001345
O        -2.16665843912824   -8.43757050200408   -3.42436640772541
H        -1.42422491627894   -9.07212097229422   -3.39556317019098
H        -7.80753188988723   -6.94596598760210    2.60298866291935
O        -6.86095910656166   -6.76313938860939    2.50005120449385
H        -6.59116903082835   -6.39703408972566    3.36055378063292
H         5.66210835056522    5.08330481112041    3.17857111635297
O         5.82795515949023    4.35759165241527    2.54446890325868
H         6.73977015108548    4.01363595314366    2.69691702803026
H         0.51823996114346   -8.76299159472870    6.95555445267436
O         0.13798049500811   -7.91953208210274    6.64817007925131
H        -0.52265564678612   -8.13811590859748    5.95651101241419
H         5.38146043700471   -1.80970108456977   -6.36294524268465
O         6.10147943096950   -1.35612852186725   -5.88866545790207
H         5.67119688516733   -0.58895119551594   -5.48070378367293
H        -6.26434119746469    2.58675207894746   -1.24656555421951
O        -5.98315082893529    3.00300073975964   -0.41273707855834
H        -6.28098005169803    2.46952837001687    0.35254356440743
H         8.79318873611446    3.60716333425940    3.38986565948992
O         8.19289689588051    3.26471471542871    2.70264860549575
H         8.67409451242859    3.38604761283839    1.86061005998068
H         4.21762800898186   -9.60190819449644    4.76423054597974
O         4.11129610008177  -10.32482820816184    4.11148904410371
H         3.42484303827497  -10.00991781338181    3.48668619011671
H        -3.37459440835879    1.93716007247778    6.55325923362577
O        -4.34879693394788    2.08165307652726    6.51702060027015
H        -4.55534890136486    2.47966455339175    7.39227876908223
H        -4.62834540388134   -8.19735139040671   -5.76384674604214
O        -4.84957949602549   -8.76196782468683   -4.97965002691867
H        -5.79356839381690   -8.52363235169599   -4.77874297746759
H        -4.00217434153273   -7.22892229848815   -4.00196400757364
O        -4.00160923275502   -6.27516666491867   -4.11747253469153