2700
 energy: -4585.935456995067 gnorm: 0.000504733915 xtb: 6.4.0 (d4b70c2)
H         5.21619275164077   -3.77882875975583    1.05500646282965
O         4.60323759350616   -3.02271833311990    0.98624720290516
H         4.02118776779561   -3.07337542993217    1.78274635701032
H         3.11257446444897   -0.39788282897968    0.74581446868492
O         2.19612666166870   -0.66783222348170    0.51695368638605
H         2.28418942392067   -1.52298632628136    0.05053964876310
H         4.07073962443724   -0.49385564883641    2.73727822806166
O         3.49348742706792   -0.63762795089274    3.52042893977252
H         2.81097678178823    0.06129781688817    3.48489262878721
H         2.09297328337521   -3.05935343666051    2.33990585078382
O         2.88162908756044   -3.07433927159249    2.89504351030083
H         3.04253347322986   -2.16460961897377    3.20596003418899
H         2.77326921961535   -1.51317752138018    6.63295484943829
O         2.43105834773423   -1.79357403774487    5.75805864085634
H         2.98190175847816   -1.39017320794201    5.07426665989614
H         1.14709586958416   -2.79209256219481    5.13854549322870
O         0.55431755318503   -3.16293667380717    4.46636180838305
H         0.55936989394428   -2.51246446719094    3.74023812804196
H         2.73789586532309    1.83052034502055    3.02536332047363
O         1.89945432449554    1.42154652102964    3.34960221890909
H         1.38276894805687    1.24774055429213    2.53546921388758
H         3.50045944972876   -5.18254699275199    1.68687970107999
O         2.96429683012237   -5.23666855528100    0.86443149194265
H         2.24270476278258   -4.58217726652152    0.94000847892625
H         6.47229895938039   -1.69818586870265    2.26471678659785
O         6.10649984914383   -1.53726981449055    3.15258418068872
H         6.39940278818382   -0.63189214220293    3.35771236813218
H         0.85658789600917    0.58191948917576    0.58550347418587
O         0.49876054568679    1.32483294808367    1.09575161960995
H        -0.44037750909578    1.14400158360183    1.23127535477891
H         7.16807449618200    1.62226729746082    3.12765193312505
O         6.47680413141228    1.03739368959109    3.48989828100560
H         5.64545053406506    1.30320375205622    3.03819234273045
H         4.91447257811254   -1.32380464301631    1.00459339005166
O         4.66981380224971   -0.39638910653898    1.16539610696040
H         5.44641779001670    0.17657054107540    0.99619231480752
H         3.81082478836571   -5.14660569829624   -0.59542980973084
O         4.34828482233192   -5.08780151130055   -1.41678345465294
H         5.04274478041826   -5.74284273218173   -1.32281114135064
H        -0.18858184019215    0.51725257229671    4.83585699138191
O        -0.69099858401452    0.45666504410970    4.00473635895017
H        -0.14224250551504   -0.12698376362034    3.43853888161372
H         2.41357429274727    4.99870704547046    3.90511393466632
O         2.67027320137075    4.06687716684253    3.79288562785763
H         2.55212049348352    3.86559095784468    2.84141137504597
H        -0.18917999424951   -1.60696849069110    1.97938964759211
O         0.56417059935074   -1.28834073361162    2.52458200639215
H         1.24819990585299   -1.04719765880309    1.86560459930461
H        -1.07319854281171   -0.52723080564339   -0.74020980426089
O        -0.10226931563704   -0.47274384732154   -0.81281716532109
H         0.15570218309131   -1.35857686442259   -1.08377043310494
H         2.66555324891033    3.82823692232721    0.60907912881888
O         2.17164058527858    3.45891582595259    1.35059037884276
H         1.55089036254005    2.79637892001327    1.02673296719262
H         1.52677170280737    3.57768794463852   -1.08540888967403
O         1.67868107218043    2.65707594001248   -1.39587974118167
H         0.77774725498607    2.30443740603142   -1.48832225658301
H         4.16947705636520    1.83188201936458    1.44629051311432
O         4.25454749077126    2.00548418459484    2.40344363026523
H         4.65755863067142    2.89374440338752    2.46863396507652
H         5.79411377474475   -2.87510915869942    4.03376770335093
O         5.69995817727830   -3.75447417076630    4.44802804399179
H         5.35361701648559   -3.60072508673983    5.34006853484711
H         1.86491899691499   -5.89476384952692   -1.25941957818201
O         1.41791900586629   -5.02968475269723   -1.20435717310300
H         1.03320784328288   -4.84173846927843   -2.08104234683146
H         0.21103565759265   -5.44985591677865   -0.21802814333767
O        -0.51144428771720   -5.87172722221370    0.30251565121107
H        -0.45392192566022   -6.82030819311245    0.08084665143794
H         0.50590256305479   -3.31169351874888    0.19743341906531
O         0.94283802536109   -3.48051626099391    1.05335961211043
H         0.24375010529491   -3.78582590020071    1.65358817293658
H        -1.79909063580672   -0.95776751936098    1.17863890722718
O        -1.57067888605272   -1.90587322065763    1.10754535695223
H        -2.23983869537338   -2.38810565793023    1.61830100577207
H        -3.60833891888496   -0.22838982940142    4.00779770056128
O        -2.90300197207946   -0.90607262328105    4.11896961115444
H        -2.03576143147512   -0.44350789339216    4.15346868975055
H        -0.75914560848895   -8.60974251126368    1.75464441245726
O        -0.48894464030474   -7.85854316846144    2.32255435952315
H         0.43028250482419   -7.65269379752254    2.05756005772128
H        -1.87818027518535   -4.14650152813341    2.50145353680838
O        -1.03266251281851   -4.62026472780402    2.50443431653523
H        -1.02072336466670   -5.21605619612974    1.72847570449435
H         1.27160881648086   -4.67823285402386    3.94687838890697
O         1.43380834708119   -5.49121796029527    3.43027327340696
H         0.67979760018326   -5.59134491395412    2.84896531628779
H         4.60310100888207    2.47157983315261   -0.62682860655342
O         3.98404865555748    1.82358429614989   -0.28836076914094
H         3.10439510972016    2.06281181624402   -0.62451952711811
H        -0.79551653866186   -5.91039897718331    5.34333475561799
O        -1.33960282564174   -6.22989717963667    4.60237497421079
H        -1.12657635274954   -5.65185097018979    3.85094198901090
H        -0.65646220334875    1.20025184690858   -0.97864493568561
O        -0.92443739071384    2.09555843310025   -1.22561466803149
H        -1.17868772227092    2.57129850140851   -0.41123635306592
H         2.66954541649560    2.40366168622162   -2.65524934784246
O         3.27075600268417    2.40541727893366   -3.43496591420576
H         2.69218502087580    2.39126697718079   -4.21380739048299
H         4.52788177418643    0.13335141232616    5.82175397752248
O         5.08974275079600   -0.65894100309556    5.66381412764777
H         4.98561501590982   -0.84580061229853    4.71951606259299
H        -1.80855629731260    1.84050886711302    5.61002999347487
O        -1.86179138809608    1.37894437642410    6.47067364637291
H        -1.57857139440938    0.44502657685624    6.37874434710954
H        -4.14408920254523   -3.45569490379577    2.71123336112748
O        -3.23495061225265   -3.08556651438487    2.76627896929058
H        -3.29040790667872   -2.22642976385051    3.24348202890648
H         6.83827404608031   -5.03673294212183    0.50263784033956
O         6.16211842843886   -5.12767417742828    1.20207022866758
H         5.62043567873608   -5.89508582533490    0.93325810239632
H        -4.97679773758733   -0.39046994078515    2.43637716486334
O        -4.63092815784438   -0.20040316169015    1.55398480048310
H        -4.57270614147192   -1.06439472312173    1.10891878470702
H         1.70157987490180    3.20717828039355    4.96964331204002
O         1.09438441926511    3.06417019814190    5.72323526523040
H         1.00814953520387    2.11143429169065    5.88410285555690
H        -3.13514716332523    0.47396998381987   -0.82403016424939
O        -2.70511489866917   -0.38270611446546   -1.01812564304778
H        -3.23202322614104   -1.07426799752608   -0.58080179364240
H         0.60986318430039    2.70905984160670    3.25065018150580
O        -0.12517765172248    3.29330229539629    3.01403435156023
H         0.22439330621418    4.19218590227095    2.87881377837941
H        -4.44567263154776   -2.37104782060510   -1.00546644337274
O        -4.22000321249113   -2.31854197372116   -0.05566678828795
H        -3.69401890911764   -3.10535324020004    0.14612469450663
H        -2.74142004086635   -6.92185853889608    6.71090302721989
O        -2.96820839046724   -7.85477943966256    6.55952161430182
H        -2.66464067674542   -8.06037468041979    5.66583964127994
H         2.28327982802093   -3.57505106316811   -0.97870418460225
O         2.82884412918381   -2.76691993442810   -0.95249923873431
H         3.54412666243362   -2.92137544170898   -0.29301753585193
H        -1.84894638325491    0.78900518657453    2.56583521254780
O        -2.08383454703844    0.63894155988032    1.64275799808532
H        -3.05619369020907    0.56783627934337    1.57703515197593
H        -0.97497765172777   -3.45207074043728    4.92583012454300
O        -1.92513342974359   -3.42110810988320    5.18383661372453
H        -2.43819979306911   -3.39207488671424    4.36489773750877
H         2.02222548667378    4.31645056293438    6.60200613112354
O         2.56013533349509    5.10294301963807    6.79767031685241
H         2.22974802898519    5.45823060693265    7.64542458249730
H        -4.54562344713669    1.63586567075248    3.52781192838930
O        -4.72230135869448    0.90892694586645    4.14371441818203
H        -4.73422135168053    1.29441020474174    5.02399241162544
H         4.92000100960550    0.24692394122027   -0.94341263184022
O         4.88309460218806   -0.32076389993696   -1.72579692225100
H         3.94132559006795   -0.32787346185251   -1.97688056081408
H         0.49466509589081    5.66068456736294    4.87071734788410
O        -0.30157222696484    5.15465056967556    5.09298201577019
H         0.02274678949500    4.28565268220476    5.39392774808264
H        -7.14810392185178    1.02963900142607    3.67921581487088
O        -7.37135437295359    0.28080141218790    4.24035889202275
H        -6.67302773810799   -0.39940697856555    4.11195126458259
H         2.10116694053640   -0.11003667764765   -1.21159611541196
O         2.27918812055736   -0.11265172301823   -2.16634934269353
H         1.88960001899884   -0.94110151117664   -2.51712031862015
H         0.71170101074233    1.42991339400379   -4.12791884303511
O         0.23707745498505    1.11310778257943   -3.34630175148920
H         0.91521332680149    0.68710018261031   -2.78988271444940
H         4.04572446173663    3.95221158132335    4.71779827415433
O         4.67498828875755    4.03390879661653    5.46339766996254
H         4.14802443055087    4.40578066739385    6.18550168717924
H        -6.36176314293254   -0.54975550139621   -0.91185251833117
O        -6.12841622128939    0.36175454667982   -0.65078582466323
H        -5.57031410623652    0.29772288816080    0.14208553617303
H        -4.27397877942624    3.56985664244726    2.50014331368394
O        -3.89887913229358    2.67653627263621    2.35787565191847
H        -3.15374463020039    2.78967365371213    1.73342377015562
H         3.33813168011762   -5.19675267442371    3.58154677088294
O         4.18236016369276   -5.41092545918990    3.15164550980970
H         4.81201440368611   -4.76611074792903    3.55401871982658
H        -2.89985810938283    2.77787203935770    3.76033479684439
O        -2.23828350980404    2.97024908841074    4.45021488536105
H        -1.38696512412994    3.12249310638549    3.98076411697229
H         4.87221599970677   -2.01859145801565    6.53187455401507
O         4.84561031333982   -2.92365987358751    6.91429715202233
H         5.57966471567307   -2.96814500819609    7.54568120106315
H         0.66716783282024    0.33348398632484    7.15265154690043
O         0.85167063385431    0.41505542152363    6.20128195721202
H         1.35384530454696   -0.38607718050411    5.97345844206876
H        -7.09857502039651    1.25306377203208    1.67315734211533
O        -6.63105564684084    2.07859928251626    1.90482311963717
H        -5.68107094744236    1.91290958418765    1.87985184315592
H         7.78836723223915   -0.69949811187368   -0.39428706183796
O         8.16809452571817   -0.39714915006723   -1.24252457360911
H         7.54598715126501   -0.71038186664872   -1.94611008700770
H        -1.61991353215452   -1.91986452357237    5.97997732432237
O        -1.23535004860245   -1.21655160727446    6.53199509006643
H        -1.72984962563175   -1.24111852384637    7.38203894860589
H         6.25891031860766    2.39191651345275   -2.21804219808581
O         6.55974776924062    2.95341186968727   -1.46973282717454
H         7.38802493013304    3.36431696815270   -1.78349788786943
H        -2.14543177024048    1.32268510740740   -3.96398715574354
O        -2.64045002679611    1.57571668159351   -3.16285441022282
H        -2.01990646020535    1.69750563095615   -2.41750927235411
H         9.70673510831954    0.37598530217174    0.89259808042579
O         9.03765649024934    0.79482187630728    1.46798384438573
H         8.82628787661094    0.11758743613658    2.14176894211128
H        -3.20687541651109    2.55976081406719   -0.17011577001720
O        -3.82816652627207    1.90503493071643   -0.49236436688437
H        -4.68314540063301    2.36109326494808   -0.57887016798813
H        -0.09887382340545   -1.82470593905299   -3.13640870476340
O         0.85075442616063   -1.98919246054181   -3.29090933539804
H         0.92588635504680   -2.94934508358090   -3.42279664459501
H         2.22018171678719   -6.59031401829182    1.27281759684252
O         1.97783498941351   -7.53693145971272    1.43544897108838
H         2.65429572758232   -7.84824521344262    2.05522080623983
H        -1.92995141939032   -5.03660623158711    0.03387035818969
O        -2.78518005474087   -4.55630374527670    0.03966181394570
H        -3.39815881898801   -5.11367334063371    0.54868514851241
H         4.71697514727025   -7.64798465695051    1.44960728343470
O         5.12056539973501   -7.45335688482124    0.57149831894984
H         6.04100729260410   -7.79656638900471    0.61270098759581
H        -1.04898887189163    3.19807338008064    1.63962648408391
O        -1.73861696308765    3.35444495892210    0.95934543975405
H        -1.89428946815301    4.32212025494168    0.98408007256619
H        -5.31423366692098    0.43753053205563   -2.16908284871427
O        -4.80460737715271    0.18981648807334   -2.96001228421953
H        -3.94479635017574    0.65059915122767   -2.88108873185289
H        -4.08237363734610   -0.01553617281958    6.72850504385966
O        -4.00125912256262   -0.95300030795248    6.53039432077145
H        -3.58081915714083   -1.03255122380930    5.65277311001774
H        -4.61907458627092    5.20275495544922   -0.09476383492959
O        -3.87981813513677    4.65314258886538   -0.37815396612452
H        -4.13331678535429    4.30702715850237   -1.25341457692568
H         4.81354127099880    1.76849811481532   -3.55192047377909
O         5.74125744428216    1.47222102130873   -3.49929037666921
H         5.69799783251598    0.60074333711592   -3.06288285193457
H        -3.34520201622321   -6.45489444554465    2.59701055239417
O        -2.91082558218513   -6.75257663718587    1.78466270763501
H        -2.03554845197222   -7.08592435511074    2.03761115612110
H         0.90216744009841    6.59195316510164    2.09577882299525
O         0.59125929544055    5.68188231528684    2.13759745244999
H         0.77819094016503    5.28616157468218    1.26643352516812
H        -1.63640802106466   -3.38961525420268   -4.49871285621668
O        -2.43429981734387   -3.69294219625542   -4.01983947104822
H        -3.03000111159941   -4.00406543738213   -4.72389705497635
H         5.99653673663416    4.74978432681206    1.05223259199806
O         6.15338225165556    5.08711538297547    0.12640196915217
H         6.38335894308486    4.32889778738876   -0.43879934489176
H        -5.41059015534381   -2.32197097061881    4.37466292705296
O        -5.63870549524162   -1.63285806251233    3.72843592226116
H        -5.96894099803199   -2.07198921530986    2.92187605784432
H        -0.87978393375575   -3.92656016218011   -1.56539692165664
O        -0.59101747631527   -3.11073470156405   -1.13210542344268
H        -1.27208846358097   -2.84186957697210   -0.50146757270518
H        -2.27595316524488    4.71790526968192   -1.02752611753063
O        -1.52483211550154    5.09160244766888   -1.51062597696961
H        -1.36793212308285    4.53916497352193   -2.30528065083288
H         0.54190626214726    2.45522353885171    8.25937378087598
O        -0.42704552344536    2.56809520661734    8.32944440580593
H        -0.84722304908301    2.17778002553374    7.53784758939352
H        -1.92501034420965   -4.88576108984607   -2.95679340108269
O        -1.45605860604908   -5.47244868224760   -2.32581477976407
H        -2.09539861461622   -6.01213232819938   -1.84380916330285
H        -2.03455976141686   -7.01602412915351    8.65353791432942
O        -1.10380461192462   -6.79584982620465    8.52426843607196
H        -0.70501879726471   -7.43575497539443    7.90949081712943
H        -4.45241909470814   -4.38904804001605    5.19249231899444
O        -4.78933987850087   -3.52483996174043    5.46009706820728
H        -4.21304322618272   -3.18256383002016    6.14358363715723
H        -2.61301544162443   -4.73705269369562    7.80123119467918
O        -2.73947433783306   -5.18651804595239    6.93286893942316
H        -2.38557225315680   -4.57096756111725    6.25775036573641
H        -3.43795803432088   -2.49572967073303   -3.18586854515290
O        -4.24555570217430   -2.30429189880122   -2.68173463064770
H        -4.51815144585968   -1.37461193223270   -2.87449887720169
H         1.59570156571401   -9.65859114344521    2.00601705039974
O         1.60364725130929   -9.92662929335938    2.93590550280396
H         1.51577450830220   -9.11932275160506    3.48649520141382
H         3.52755798518698    4.07142518430730   -3.28632280443904
O         3.61862205520649    5.04039736597500   -3.16230360460416
H         4.57606400044762    5.21391220930563   -2.95571601264606
H         1.69969965620259   -6.92661851991994    4.16435730092005
O         1.74703900683300   -7.81635909662258    4.58105979346792
H         1.08075112912121   -7.81374842774315    5.29718165984711
H        -0.65696341024272    2.77331797615594   -3.20910886512365
O        -0.88057708936244    3.61444781090270   -3.63034373663926
H        -0.03801749564570    3.88857754628734   -4.04733128916604
H        -8.96883408444780   -2.19106162717599    3.31986062423718
O        -9.36291825628515   -1.29816848028094    3.34372349484607
H        -8.80875678663022   -0.79751082278830    3.97059498468944
H        -0.98594253888363  -10.72092212495841    1.31823158368125
O        -1.50112110198936   -9.92981121238575    1.05320191001364
H        -2.30198173340411   -9.88487326332933    1.62803130791720
H        -5.26297928397135   -6.94657809338490    7.20061824601367
O        -5.20109265842088   -5.98799431702853    7.06080907597596
H        -4.25479286705175   -5.73497134499067    6.96559796124971
H         1.66032884530686    4.27763079052135   -5.55653495191668
O         1.50042776041688    4.15683673289791   -4.60739841449862
H         1.69989400383151    4.98628211836405   -4.15000223136510
H        -0.04135981551266    5.02784437729843   -0.85548576513873
O         0.86542129843405    4.94667028689039   -0.48854557606866
H         1.39119923188236    5.70272775717352   -0.79478653370106
H        -5.14021271638335   -1.89168489124707    9.94438633105784
O        -4.82799438944411   -2.32270371304160    9.11341270693067
H        -5.46962722793215   -2.07266979400181    8.41249685718472
H        -4.44206793724638   -3.91793628779775   -2.45447950152139
O        -4.37890815030483   -4.83051143268331   -2.11395332322735
H        -3.78169979373476   -4.77927957617778   -1.34029730588022
H        -4.76801464644654    3.73759690320066   -3.52272010061139
O        -4.03619781672228    3.77474963920860   -2.88361999750788
H        -3.55164756517054    2.92837273377223   -2.95112109687539
H         4.91230858710354   -8.45709140661746    3.28339211216272
O         4.12858672324391   -7.98841250130045    2.94007447334182
H         4.18754292271615   -7.04618294427661    3.22040569668190
H         6.63937548355139   -2.30530088762340    0.06835055728265
O         7.17529058947551   -1.83036862756102    0.72752155770746
H         8.04680444150593   -2.26049438569327    0.81618280513607
H         3.03015533239887   -3.70230706708360    5.59705740797980
O         3.12960981731093   -4.65260123834661    5.47529041847275
H         2.83917835664506   -5.09565123220750    6.28484514462957
H        -7.18590133571785   -1.50884953728491    1.34372098999230
O        -6.57247327734613   -2.27105371064003    1.31673584741604
H        -7.07948803590748   -3.09969431696520    1.33777134663114
H        -6.84836973214928   -0.83424782721346    7.06761588015378
O        -6.38360902026916   -1.68780757867918    7.12085174815980
H        -5.52324546852838   -1.52165097464790    6.67498225311629
H        -2.28059068850679    3.41638655552874   -4.83166769101944
O        -2.97964064690227    3.31307713826031   -5.50026550888392
H        -3.45590069370972    2.48189405623475   -5.30449437766069
H        -3.64498394587198    0.25613942964760   -5.52862865008396
O        -4.29541829827788    0.98048961686303   -5.45927705144756
H        -4.76220228433188    0.79980599672291   -4.62696415161475
H         5.06442417266365   -3.42235323795212   -1.46023885506314
O         5.77337053811203   -2.77058621230330   -1.36539279601044
H         5.45691897377338   -1.88481279760420   -1.64321266551064
H        -0.16049019054223   -0.21624521860763   -5.48063914122092
O         0.70630551778132   -0.66224489254898   -5.56411037352380
H         0.83979616043233   -1.20058703035158   -4.75330595606889
H         0.06879644098535   -4.96444312890790   -4.18029450671443
O         0.80673092923724   -4.56966360083652   -3.69211449792278
H         1.61696240418408   -5.08793857378234   -3.86410986201821
H         0.14271155161535   -7.96527745737662   -1.50719215970729
O        -0.29655993585209   -8.29712159914127   -0.69046105448533
H         0.32257939909847   -8.91812625344380   -0.26409787378936
H         7.26854066809572   -0.79784610670104   -3.90771283748581
O         6.84885238767854   -1.35748373241344   -3.22608204758862
H         7.24496466657829   -2.23678868893349   -3.30212203634068
H        -2.95563044779493   -6.03939259765643    4.51313823461507
O        -3.90132019298259   -5.95831550581849    4.23974957272098
H        -4.31810572036092   -6.82473591729494    4.41075026280016
H         8.71728888683399    1.11360391758877   -1.45445700440874
O         9.21235364072978    1.93494918003264   -1.66183962682328
H        10.15507849215968    1.67391096894660   -1.68363051840314
H        -5.44056174528735   -4.82205050285428    1.90014937633123
O        -5.50449581804511   -4.35878405973023    2.75980474812651
H        -5.15361563370066   -4.97512805354942    3.41918944551520
H        -7.43231823369286   -5.39100585418626    1.44001738161360
O        -7.69749047583542   -4.62522752104437    0.89368345946992
H        -7.48987373844495   -4.84209347934037   -0.02535668910255
H        -1.96485843122545   -7.92824457438936   -0.70915768556080
O        -2.81141913869081   -7.47008599419806   -0.87159200154765
H        -3.11414281779924   -7.23287060939913    0.02010491140628
H         6.65597239527359    1.85741668533231   -0.15537081172721
O         6.59121599764894    1.27146639728095    0.61177359498463
H         7.49950672017620    1.11189285768897    0.92461310017204
H        -7.02043988201126   -3.08072136203638    6.46037727347023
O        -7.61222447059716   -3.82347162385303    6.22440862404811
H        -8.39967289519083   -3.70764585127704    6.78936372529718
H         2.49224320000859    1.69803148179325    8.95330309413670
O         2.25750897968446    2.28437001976141    8.20692369344419
H         2.81619013894321    3.06496186130383    8.33460689372237
H        -6.14410871845885    2.91173587186582   -5.39515434354033
O        -5.92458865757805    3.65302734190099   -4.80384522557455
H        -5.78931775393616    4.40436561470453   -5.40356532785247
H         3.23478558391450   -2.78867608676218   -2.59881839849138
O         3.40991680877467   -2.80053493267839   -3.55983437244545
H         4.25927295486658   -3.24699042096952   -3.73047790399546
H        -5.05913478000725   -6.70766927606967    0.72545133926111
O        -5.06548433830653   -5.75124301562778    0.55391797783416
H        -5.61666103777314   -5.59119382857841   -0.21562004896177
H        -0.65628660338665    6.72211397457844    3.75942174332424
O        -1.54615053775691    7.05360225666994    3.62630474673838
H        -2.11750100969384    6.52614691850659    4.21813899279301
H        -7.97502048051436   -3.55426303837948    4.55939391679582
O        -8.01546055629316   -3.60370042834138    3.58429433334011
H        -7.11875917959394   -3.83741136219266    3.28486749133281
H         8.83348305798880    1.40579985508612   -4.50569849151123
O         9.20138754737403    2.28986440598189   -4.29506774418518
H         9.25719663448712    2.30177610977020   -3.31199803449488
H        -9.74223863807576   -5.77938990500456    1.95179668896409
O        -9.45862112983603   -5.80269553463043    2.87839793842928
H        -9.00777109270794   -4.95967518632244    3.06935658606552
H        -6.11810715612513    1.34864783157510    6.77754298857959
O        -6.96306260889399    0.88422622299516    6.77598210062679
H        -7.18662193715855    0.71038386772978    5.82868239151430
H         5.99566046343710   -3.08314829580975   -4.83810998069364
O         5.58324625491951   -3.91043339376269   -4.53779191611418
H         6.21576486042621   -4.45952012038575   -4.04815184910673
H        -6.73573180732004    0.66680102284664   -5.48985879317173
O        -6.84947106504105    0.01697997853424   -4.77633509883919
H        -7.68435599545688   -0.45506947628305   -4.97380638005249
H         3.59284051463641   -7.47252881394779   -1.30427143188271
O         2.63354200943528   -7.44307625180267   -1.14881371056521
H         2.46008693568742   -7.62345927293910   -0.20775289270916
H         8.09016365363352   -2.85862365059680    5.61574414901640
O         8.34772829446647   -3.78485949094742    5.45144742634439
H         8.17788468228899   -3.94204005302530    4.50172629302689
H         6.24304375224935    1.48563111682590    5.00887135431122
O         6.12513877969704    1.89699878887794    5.90050054315061
H         5.49949551055811    2.64373135870442    5.76950602939202
H        -1.38898100345923   -9.83413633888761    4.43504404586439
O        -1.65411832515271   -8.88857521870137    4.44801742878082
H        -1.14291538106368   -8.41242088950671    3.75588960217558
H        -7.16265729058496   -5.15724555815466    5.19495323060328
O        -6.67856208498047   -5.95196670165646    4.92486066647643
H        -6.02571268307308   -6.04953836911583    5.64900016453293
H         0.95568093447902   -5.71645751253576    6.81635820156297
O         0.11219512629217   -5.28566832928532    6.64227554660363
H        -0.49625962766853   -5.61358588118176    7.32788479322414
H         0.63378316184013   -7.69295057113948   -3.69810790489548
O         0.59836318913247   -7.21106111218940   -2.84938710290999
H        -0.11277384614868   -6.55029235251969   -2.85906141980917
H        -2.10774044553177   -8.09816127336371   -2.65779012246686
O        -2.02299642619867   -8.21974375049805   -3.60776115539139
H        -1.44546140975325   -9.00541774517262   -3.72181924311621
H        -7.92936314147980   -6.93501860749014    2.52748700848038
O        -6.98766227835262   -6.72041508008170    2.43216966727287
H        -6.71952875775930   -6.39805505961074    3.31301970359427
H         5.51742393975870    4.88337827823714    3.11678822687422
O         5.69406129443072    4.17253738572226    2.47284522715218
H         6.58699699163255    3.79013838911749    2.65463918637976
H         0.29248671985959   -8.99676100959228    6.78616287840096
O        -0.05504404368741   -8.15365856617435    6.44688777026335
H        -0.71989119940746   -8.34944562055313    5.75416616441729
H         5.18129743394169   -1.88285367722928   -6.35289045845652
O         5.86833520599383   -1.48912552747921   -5.77746154523575
H         5.39980401683820   -0.84634675891641   -5.22791308473889
H        -6.50828410444257    2.70668561007929   -1.36854541245479
O        -6.18269419031405    3.26106497186783   -0.63358438957912
H        -6.56865657245293    2.94836027321224    0.19458429430771
H         8.62946208202893    3.39093670970528    3.35477130870035
O         8.01700316004249    3.04000685326975    2.68121134501747
H         8.48675388309175    3.11904141702039    1.82994802994040
H         4.01863806865287   -9.92637359672975    4.87662811016156
O         3.78763524666788  -10.63266805040741    4.23814160549981
H         3.15024933718336  -10.22550945461231    3.61639420769498
H        -3.41214799188441    1.79282343729473    6.63447314142268
O        -4.38698022090300    1.92087644444687    6.71819268935695
H        -4.48833142527071    2.31891411479395    7.61663665272569
H        -4.64673363083156   -7.98072839254352   -5.64793644916039
O        -4.97678160182834   -8.66906706102781   -5.01977905146623
H        -5.91730618403341   -8.42868054449066   -4.83349635004846
H        -3.35368554255805   -7.07883344003791   -4.01880057186107
O        -3.82608681109561   -6.26581768654826   -4.22192830946366